[Molden Format]
[Title]
Written by TeraChem
[Atoms] Angs
Fe   1   16      0.01663   -0.01702   -0.00645
O   2   8      0.12581    2.12067    0.10395
H   3   1      1.03117    2.48079    0.08544
H   4   1     -0.44542    2.79202   -0.30986
O   5   8      2.17796    0.11180    0.05160
H   6   1      2.81507   -0.10791   -0.65108
H   7   1      2.62431   -0.09320    0.89268
O   8   8     -0.13484   -2.12570    0.02848
H   9   1     -0.13444   -2.59761   -0.82426
H   10   1      0.31333   -2.71373    0.66237
O   11   8     -2.17610   -0.09634   -0.13503
H   12   1     -2.82900    0.60390    0.04178
H   13   1     -2.61217   -0.93458    0.10114
O   14   8      0.15444    0.06025    2.01760
H   15   1      0.11393    0.96590    2.37856
H   16   1     -0.38077   -0.49803    2.61108
O   17   8     -0.09559   -0.15466   -2.02592
H   18   1      0.44747    0.34669   -2.66087
H   19   1     -1.01180   -0.14324   -2.36120
[GTO]
    1 0
 s    3 1.00
            6.422000            -0.392788
            1.826000             0.771264
            0.713500             0.492023
 s    4 1.00
            6.422000             0.178688
            1.826000            -0.419403
            0.713500            -0.456819
            0.102100             1.103505
 s    1 1.00
            0.036300             1.000000
 p    3 1.00
           19.480000            -0.047028
            2.389000             0.624884
            0.779500             0.472254
 p    1 1.00
            0.074000             1.000000
 p    1 1.00
            0.022000             1.000000
 d    4 1.00
           37.080000             0.032900
           10.100000             0.178742
            3.220000             0.448766
            0.962800             0.587636
 d    1 1.00
            0.226200             1.000000

    2 0
 s    6 1.00
         5484.671700             0.001831
          825.234950             0.013950
          188.046960             0.068445
           52.964500             0.232714
           16.897570             0.470193
            5.799635             0.358521
 s    3 1.00
           15.539616            -0.110778
            3.599934            -0.148026
            1.013762             1.130767
 s    1 1.00
            0.270006             1.000000
 p    3 1.00
           15.539616             0.070874
            3.599934             0.339753
            1.013762             0.727159
 p    1 1.00
            0.270006             1.000000
 d    1 1.00
            0.800000             1.000000

    3 0
 s    3 1.00
           18.731137             0.033495
            2.825394             0.234727
            0.640122             0.813757
 s    1 1.00
            0.161278             1.000000

    4 0
 s    3 1.00
           18.731137             0.033495
            2.825394             0.234727
            0.640122             0.813757
 s    1 1.00
            0.161278             1.000000

    5 0
 s    6 1.00
         5484.671700             0.001831
          825.234950             0.013950
          188.046960             0.068445
           52.964500             0.232714
           16.897570             0.470193
            5.799635             0.358521
 s    3 1.00
           15.539616            -0.110778
            3.599934            -0.148026
            1.013762             1.130767
 s    1 1.00
            0.270006             1.000000
 p    3 1.00
           15.539616             0.070874
            3.599934             0.339753
            1.013762             0.727159
 p    1 1.00
            0.270006             1.000000
 d    1 1.00
            0.800000             1.000000

    6 0
 s    3 1.00
           18.731137             0.033495
            2.825394             0.234727
            0.640122             0.813757
 s    1 1.00
            0.161278             1.000000

    7 0
 s    3 1.00
           18.731137             0.033495
            2.825394             0.234727
            0.640122             0.813757
 s    1 1.00
            0.161278             1.000000

    8 0
 s    6 1.00
         5484.671700             0.001831
          825.234950             0.013950
          188.046960             0.068445
           52.964500             0.232714
           16.897570             0.470193
            5.799635             0.358521
 s    3 1.00
           15.539616            -0.110778
            3.599934            -0.148026
            1.013762             1.130767
 s    1 1.00
            0.270006             1.000000
 p    3 1.00
           15.539616             0.070874
            3.599934             0.339753
            1.013762             0.727159
 p    1 1.00
            0.270006             1.000000
 d    1 1.00
            0.800000             1.000000

    9 0
 s    3 1.00
           18.731137             0.033495
            2.825394             0.234727
            0.640122             0.813757
 s    1 1.00
            0.161278             1.000000

   10 0
 s    3 1.00
           18.731137             0.033495
            2.825394             0.234727
            0.640122             0.813757
 s    1 1.00
            0.161278             1.000000

   11 0
 s    6 1.00
         5484.671700             0.001831
          825.234950             0.013950
          188.046960             0.068445
           52.964500             0.232714
           16.897570             0.470193
            5.799635             0.358521
 s    3 1.00
           15.539616            -0.110778
            3.599934            -0.148026
            1.013762             1.130767
 s    1 1.00
            0.270006             1.000000
 p    3 1.00
           15.539616             0.070874
            3.599934             0.339753
            1.013762             0.727159
 p    1 1.00
            0.270006             1.000000
 d    1 1.00
            0.800000             1.000000

   12 0
 s    3 1.00
           18.731137             0.033495
            2.825394             0.234727
            0.640122             0.813757
 s    1 1.00
            0.161278             1.000000

   13 0
 s    3 1.00
           18.731137             0.033495
            2.825394             0.234727
            0.640122             0.813757
 s    1 1.00
            0.161278             1.000000

   14 0
 s    6 1.00
         5484.671700             0.001831
          825.234950             0.013950
          188.046960             0.068445
           52.964500             0.232714
           16.897570             0.470193
            5.799635             0.358521
 s    3 1.00
           15.539616            -0.110778
            3.599934            -0.148026
            1.013762             1.130767
 s    1 1.00
            0.270006             1.000000
 p    3 1.00
           15.539616             0.070874
            3.599934             0.339753
            1.013762             0.727159
 p    1 1.00
            0.270006             1.000000
 d    1 1.00
            0.800000             1.000000

   15 0
 s    3 1.00
           18.731137             0.033495
            2.825394             0.234727
            0.640122             0.813757
 s    1 1.00
            0.161278             1.000000

   16 0
 s    3 1.00
           18.731137             0.033495
            2.825394             0.234727
            0.640122             0.813757
 s    1 1.00
            0.161278             1.000000

   17 0
 s    6 1.00
         5484.671700             0.001831
          825.234950             0.013950
          188.046960             0.068445
           52.964500             0.232714
           16.897570             0.470193
            5.799635             0.358521
 s    3 1.00
           15.539616            -0.110778
            3.599934            -0.148026
            1.013762             1.130767
 s    1 1.00
            0.270006             1.000000
 p    3 1.00
           15.539616             0.070874
            3.599934             0.339753
            1.013762             0.727159
 p    1 1.00
            0.270006             1.000000
 d    1 1.00
            0.800000             1.000000

   18 0
 s    3 1.00
           18.731137             0.033495
            2.825394             0.234727
            0.640122             0.813757
 s    1 1.00
            0.161278             1.000000

   19 0
 s    3 1.00
           18.731137             0.033495
            2.825394             0.234727
            0.640122             0.813757
 s    1 1.00
            0.161278             1.000000

[MO]
 Ene=   -19.5145
 Spin= Alpha
 Occup= 1.0
    1    0.00059
    2    0.00112
    3    0.00010
    4   -0.00002
    5   -0.00000
    6    0.00013
    7    0.00056
    8    0.00017
    9    0.00189
   10    0.00004
   11   -0.00002
   12   -0.00032
   13    0.00000
   14   -0.00000
   15    0.00007
   16   -0.00000
   17    0.00000
   18    0.00001
   19   -0.00019
   20   -0.00015
   21    0.00022
   22    0.00002
   23    0.00008
   24   -0.00002
   25    0.00006
   26    0.00005
   27   -0.00023
   28   -0.00000
   29    0.00001
   30    0.00002
   31   -0.00001
   32    0.00010
   33   -0.00018
   34   -0.00001
   35    0.00001
   36    0.00002
   37    0.00001
   38    0.00001
   39    0.00000
   40    0.00006
   41   -0.00022
   42   -0.00004
   43    0.00006
   44    0.00004
   45    0.00009
   46   -0.00046
   47    0.00001
   48   -0.00000
   49   -0.00002
   50    0.00009
   51    0.00000
   52   -0.00003
   53    0.00003
   54    0.00001
   55    0.00007
   56    0.00000
   57    0.00002
   58   -0.00001
   59    0.00003
   60   -0.00002
   61   -0.00004
   62   -0.00006
   63    0.00009
   64    0.00004
   65   -0.00014
   66    0.00002
   67   -0.00001
   68    0.00001
   69   -0.00008
   70   -0.00004
   71   -0.00013
   72   -0.00001
   73   -0.00001
   74    0.00001
   75   -0.00001
   76   -0.00001
   77   -0.00002
   78   -0.00005
   79    0.00016
   80    0.00007
   81   -0.00016
   82    0.00006
   83   -0.00001
   84    0.00015
   85   -0.00000
   86    0.00000
   87    0.00004
   88    0.00003
   89   -0.00001
   90   -0.00021
   91   -0.00004
   92   -0.00003
   93   -0.00003
   94   -0.00000
   95   -0.00003
   96   -0.00000
   97    0.00002
   98    0.00002
   99    0.00002
  100    0.00002
  101   -0.99269
  102   -0.02574
  103   -0.01261
  104    0.00055
  105   -0.00028
  106   -0.00068
  107   -0.00012
  108    0.00007
  109    0.00081
  110    0.00829
  111    0.00833
  112    0.00817
  113    0.00003
  114   -0.00001
  115   -0.00002
  116   -0.00035
  117    0.00077
  118   -0.00041
  119    0.00087
  120    0.00155
  121   -0.00005
  122    0.00049
  123   -0.00001
  124    0.00000
  125   -0.00002
  126    0.00002
  127   -0.00002
  128    0.00005
  129   -0.00006
  130   -0.00006
  131   -0.00016
  132   -0.00000
  133   -0.00002
  134   -0.00001
  135   -0.00002
  136    0.00009
  137   -0.00004
  138    0.00027
 Ene=   -19.5134
 Spin= Alpha
 Occup= 1.0
    1   -0.00059
    2   -0.00112
    3   -0.00011
    4   -0.00000
    5   -0.00001
    6    0.00014
    7    0.00019
    8    0.00050
    9    0.00190
   10   -0.00001
   11    0.00001
   12   -0.00033
   13   -0.00000
   14    0.00000
   15   -0.00008
   16    0.00000
   17   -0.00001
   18    0.00000
   19    0.00016
   20    0.00012
   21   -0.00023
   22   -0.00003
   23    0.00001
   24   -0.00007
   25   -0.00012
   26   -0.00001
   27   -0.00008
   28   -0.00000
   29    0.00000
   30    0.00004
   31    0.00000
   32   -0.00002
   33   -0.00021
   34    0.00002
   35    0.00004
   36    0.00002
   37   -0.00000
   38    0.00001
   39    0.00003
   40   -0.00000
   41   -0.00005
   42   -0.00004
   43    0.00004
   44   -0.00004
   45   -0.00005
   46    0.00017
   47    0.00001
   48    0.00002
   49    0.00003
   50   -0.00004
   51   -0.00008
   52   -0.00019
   53   -0.00000
   54   -0.00002
   55   -0.00002
   56    0.00001
   57    0.00002
   58    0.00001
   59   -0.00008
   60    0.00011
   61    0.00005
   62   -0.00013
   63   -0.00006
   64   -0.00010
   65    0.00047
   66    0.00000
   67    0.00000
   68   -0.00001
   69   -0.00000
   70    0.00011
   71   -0.00008
   72   -0.00002
   73   -0.00002
   74   -0.00008
   75   -0.00001
   76    0.00000
   77   -0.00003
   78    0.00003
   79    0.00006
   80   -0.00002
   81    0.00002
   82   -0.00004
   83   -0.00006
   84    0.00025
   85    0.00000
   86    0.00001
   87    0.00003
   88    0.00011
   89   -0.00005
   90   -0.00019
   91   -0.00001
   92    0.00001
   93   -0.00002
   94   -0.00000
   95   -0.00001
   96   -0.00001
   97    0.00001
   98    0.00002
   99   -0.00005
  100    0.00014
  101    0.00160
  102    0.00013
  103   -0.00044
  104    0.00001
  105   -0.00000
  106   -0.00002
  107   -0.00004
  108    0.00002
  109    0.00005
  110    0.00003
  111    0.00003
  112    0.00013
  113    0.00000
  114    0.00001
  115    0.00001
  116    0.00004
  117   -0.00026
  118    0.00002
  119   -0.00011
  120    0.99268
  121    0.02574
  122    0.01268
  123   -0.00030
  124    0.00051
  125   -0.00070
  126    0.00009
  127   -0.00010
  128    0.00082
  129   -0.00835
  130   -0.00830
  131   -0.00819
  132   -0.00003
  133    0.00002
  134    0.00002
  135    0.00041
  136   -0.00088
  137    0.00035
  138   -0.00078
 Ene=   -19.5007
 Spin= Alpha
 Occup= 1.0
    1   -0.00063
    2   -0.00117
    3   -0.00015
    4   -0.00002
    5    0.00010
    6   -0.00001
    7    0.00056
    8    0.00196
    9    0.00014
   10    0.00003
   11   -0.00035
   12   -0.00001
   13    0.00003
   14   -0.00005
   15    0.00003
   16   -0.00000
   17    0.00000
   18   -0.00000
   19    0.00028
   20   -0.00025
   21    0.00015
   22   -0.00008
   23   -0.00002
   24    0.00003
   25   -0.00285
   26    0.00003
   27   -0.00059
   28   -0.00000
   29   -0.00002
   30   -0.00000
   31    0.00001
   32    0.00006
   33    0.00000
   34    0.00008
   35    0.00018
   36    0.00009
   37    0.00002
   38   -0.00000
   39    0.00001
   40    0.00004
   41   -0.00022
   42    0.00002
   43   -0.00003
   44   -0.00021
   45    0.00002
   46   -0.00018
   47   -0.00000
   48    0.00005
   49    0.00000
   50    0.00004
   51   -0.00023
   52   -0.00001
   53    0.00003
   54    0.00004
   55    0.00004
   56    0.00004
   57   -0.00000
   58    0.00000
   59   -0.00003
   60   -0.00000
   61   -0.00001
   62   -0.00001
   63    0.99268
   64    0.02574
   65    0.01269
   66    0.00041
   67   -0.00083
   68   -0.00017
   69   -0.00007
   70    0.00088
   71   -0.00001
   72   -0.00831
   73   -0.00819
   74   -0.00837
   75    0.00001
   76   -0.00003
   77    0.00001
   78    0.00036
   79   -0.00080
   80    0.00042
   81   -0.00089
   82   -0.00011
   83   -0.00010
   84    0.00047
   85    0.00001
   86   -0.00000
   87   -0.00000
   88    0.00009
   89   -0.00008
   90    0.00000
   91   -0.00003
   92   -0.00007
   93   -0.00002
   94   -0.00003
   95   -0.00000
   96    0.00001
   97   -0.00002
   98    0.00003
   99    0.00003
  100    0.00004
  101    0.00008
  102   -0.00004
  103    0.00015
  104    0.00001
  105    0.00001
  106   -0.00000
  107   -0.00007
  108   -0.00013
  109   -0.00006
  110   -0.00000
  111   -0.00002
  112    0.00001
  113    0.00001
  114    0.00001
  115    0.00003
  116    0.00004
  117   -0.00018
  118   -0.00006
  119    0.00018
  120    0.00003
  121   -0.00007
  122    0.00034
  123   -0.00001
  124    0.00003
  125   -0.00000
  126    0.00001
  127   -0.00020
  128    0.00013
  129   -0.00002
  130   -0.00004
  131   -0.00001
  132   -0.00001
  133   -0.00001
  134   -0.00001
  135    0.00005
  136   -0.00008
  137   -0.00005
  138    0.00025
 Ene=   -19.5000
 Spin= Alpha
 Occup= 1.0
    1    0.00062
    2    0.00114
    3    0.00020
    4   -0.00000
    5    0.00008
    6   -0.00001
    7    0.00020
    8    0.00184
    9    0.00032
   10   -0.00001
   11   -0.00035
   12   -0.00000
   13   -0.00004
   14    0.00002
   15   -0.00004
   16    0.00001
   17   -0.00000
   18    0.00000
   19   -0.00026
   20    0.00030
   21   -0.00022
   22    0.00001
   23    0.00002
   24    0.00006
   25   -0.99268
   26   -0.02575
   27   -0.01263
   28   -0.00027
   29   -0.00082
   30    0.00041
   31    0.00007
   32    0.00087
   33   -0.00005
   34    0.00836
   35    0.00818
   36    0.00830
   37   -0.00003
   38    0.00002
   39   -0.00002
   40   -0.00036
   41    0.00081
   42   -0.00043
   43    0.00092
   44    0.00013
   45    0.00006
   46   -0.00024
   47   -0.00000
   48    0.00003
   49    0.00000
   50    0.00011
   51   -0.00020
   52   -0.00002
   53    0.00001
   54    0.00002
   55   -0.00000
   56    0.00002
   57    0.00000
   58    0.00001
   59   -0.00000
   60   -0.00005
   61    0.00004
   62   -0.00015
   63   -0.00290
   64   -0.00016
   65    0.00045
   66    0.00000
   67   -0.00001
   68   -0.00000
   69   -0.00001
   70    0.00001
   71    0.00001
   72   -0.00003
   73   -0.00013
   74   -0.00002
   75   -0.00001
   76    0.00000
   77   -0.00000
   78   -0.00003
   79    0.00016
   80   -0.00002
   81    0.00004
   82    0.00004
   83    0.00005
   84   -0.00017
   85    0.00001
   86    0.00004
   87    0.00001
   88   -0.00004
   89   -0.00023
   90   -0.00005
   91    0.00002
   92    0.00003
   93    0.00004
   94   -0.00001
   95   -0.00001
   96   -0.00002
   97    0.00009
   98   -0.00010
   99   -0.00006
  100    0.00009
  101   -0.00004
  102    0.00009
  103   -0.00045
  104    0.00000
  105   -0.00000
  106    0.00002
  107   -0.00001
  108   -0.00010
  109    0.00004
  110    0.00000
  111    0.00007
  112    0.00002
  113   -0.00000
  114    0.00001
  115    0.00002
  116   -0.00004
  117    0.00005
  118    0.00004
  119   -0.00004
  120   -0.00013
  121    0.00000
  122    0.00006
  123   -0.00000
  124    0.00004
  125    0.00001
  126   -0.00001
  127   -0.00022
  128   -0.00005
  129   -0.00001
  130   -0.00002
  131   -0.00003
  132   -0.00001
  133    0.00000
  134   -0.00003
  135    0.00005
  136   -0.00011
  137   -0.00000
  138    0.00001
 Ene=   -19.4931
 Spin= Alpha
 Occup= 1.0
    1    0.00063
    2    0.00116
    3    0.00018
    4    0.00007
    5   -0.00002
    6   -0.00001
    7    0.00197
    8    0.00050
    9    0.00028
   10   -0.00037
   11    0.00002
   12   -0.00001
   13    0.00002
   14   -0.00005
   15   -0.00005
   16    0.00000
   17    0.00000
   18   -0.00000
   19    0.00027
   20   -0.00029
   21   -0.00021
   22    0.00006
   23    0.00001
   24    0.00002
   25   -0.00010
   26    0.00010
   27   -0.00052
   28    0.00000
   29    0.00001
   30    0.00000
   31   -0.00011
   32    0.00007
   33   -0.00001
   34    0.00008
   35    0.00004
   36    0.00002
   37    0.00003
   38   -0.00000
   39    0.00001
   40   -0.00003
   41    0.00003
   42    0.00003
   43   -0.00006
   44   -0.99266
   45   -0.02574
   46   -0.01269
   47   -0.00088
   48    0.00039
   49   -0.00010
   50    0.00090
   51   -0.00007
   52    0.00002
   53    0.00819
   54    0.00831
   55    0.00839
   56   -0.00001
   57   -0.00002
   58    0.00001
   59   -0.00043
   60    0.00092
   61   -0.00037
   62    0.00081
   63   -0.00023
   64   -0.00002
   65    0.00016
   66    0.00005
   67    0.00000
   68    0.00000
   69   -0.00024
   70    0.00003
   71   -0.00003
   72   -0.00004
   73   -0.00003
   74   -0.00002
   75   -0.00003
   76   -0.00001
   77    0.00001
   78   -0.00002
   79    0.00007
   80    0.00006
   81   -0.00006
   82    0.00555
   83    0.00003
   84    0.00067
   85   -0.00002
   86   -0.00000
   87    0.00000
   88    0.00007
   89   -0.00000
   90   -0.00002
   91   -0.00021
   92   -0.00011
   93   -0.00012
   94   -0.00001
   95   -0.00001
   96   -0.00000
   97   -0.00001
   98    0.00001
   99   -0.00004
  100    0.00016
  101   -0.00001
  102    0.00007
  103   -0.00033
  104    0.00002
  105   -0.00001
  106    0.00000
  107   -0.00019
  108    0.00003
  109    0.00012
  110    0.00004
  111    0.00001
  112    0.00001
  113    0.00001
  114    0.00001
  115    0.00001
  116    0.00004
  117   -0.00026
  118   -0.00003
  119    0.00005
  120   -0.00003
  121    0.00004
  122   -0.00012
  123    0.00002
  124    0.00001
  125    0.00001
  126   -0.00019
  127   -0.00007
  128   -0.00004
  129    0.00002
  130    0.00002
  131    0.00000
  132   -0.00001
  133   -0.00002
  134   -0.00000
  135    0.00008
  136   -0.00017
  137   -0.00007
  138    0.00019
 Ene=   -19.4928
 Spin= Alpha
 Occup= 1.0
    1   -0.00063
    2   -0.00112
    3   -0.00020
    4    0.00006
    5   -0.00001
    6   -0.00001
    7    0.00186
    8    0.00027
    9    0.00038
   10   -0.00036
   11    0.00000
   12   -0.00000
   13    0.00000
   14    0.00006
   15    0.00006
   16   -0.00000
   17   -0.00000
   18    0.00000
   19   -0.00032
   20    0.00028
   21    0.00027
   22   -0.00002
   23   -0.00005
   24   -0.00001
   25    0.00003
   26   -0.00004
   27    0.00012
   28    0.00004
   29    0.00001
   30    0.00001
   31   -0.00022
   32   -0.00001
   33   -0.00006
   34   -0.00003
   35   -0.00001
   36   -0.00002
   37    0.00002
   38    0.00002
   39   -0.00000
   40    0.00008
   41   -0.00014
   42   -0.00009
   43    0.00012
   44    0.00561
   45    0.00025
   46   -0.00048
   47   -0.00001
   48    0.00000
   49   -0.00000
   50    0.00002
   51   -0.00002
   52    0.00001
   53    0.00011
   54    0.00002
   55    0.00001
   56    0.00001
   57    0.00001
   58    0.00000
   59    0.00002
   60   -0.00002
   61    0.00003
   62   -0.00014
   63    0.00009
   64   -0.00006
   65    0.00026
   66    0.00003
   67   -0.00001
   68   -0.00001
   69   -0.00019
   70    0.00012
   71    0.00001
   72   -0.00003
   73   -0.00002
   74   -0.00000
   75   -0.00002
   76   -0.00001
   77   -0.00000
   78   -0.00004
   79    0.00022
   80    0.00002
   81   -0.00000
   82    0.99267
   83    0.02575
   84    0.01262
   85   -0.00089
   86   -0.00010
   87    0.00038
   88    0.00090
   89    0.00002
   90   -0.00005
   91   -0.00818
   92   -0.00838
   93   -0.00830
   94    0.00002
   95    0.00001
   96   -0.00000
   97    0.00044
   98   -0.00093
   99    0.00037
  100   -0.00084
  101    0.00008
  102    0.00001
  103   -0.00012
  104    0.00005
  105    0.00000
  106    0.00001
  107   -0.00023
  108   -0.00003
  109   -0.00002
  110    0.00003
  111    0.00001
  112    0.00003
  113    0.00001
  114    0.00003
  115   -0.00000
  116    0.00002
  117   -0.00003
  118   -0.00006
  119    0.00011
  120    0.00002
  121   -0.00010
  122    0.00050
  123   -0.00000
  124    0.00001
  125    0.00002
  126   -0.00011
  127   -0.00002
  128    0.00002
  129   -0.00007
  130   -0.00001
  131   -0.00003
  132    0.00000
  133   -0.00002
  134   -0.00001
  135   -0.00004
  136    0.00004
  137    0.00004
  138   -0.00008
 Ene=    -3.8659
 Spin= Alpha
 Occup= 1.0
    1    0.99175
    2   -0.02974
    3    0.00124
    4   -0.00022
    5    0.00032
    6   -0.00022
    7   -0.00006
    8   -0.00010
    9   -0.00013
   10    0.00000
   11    0.00001
   12   -0.00003
   13    0.00116
   14    0.00055
   15   -0.01033
   16   -0.00000
   17   -0.00170
   18    0.00075
   19    0.01280
   20    0.01301
   21    0.01789
   22   -0.00013
   23    0.00028
   24    0.00019
   25   -0.00018
   26   -0.00020
   27    0.00133
   28    0.00003
   29   -0.00011
   30   -0.00002
   31   -0.00026
   32   -0.00062
   33   -0.00004
   34   -0.00024
   35    0.00014
   36   -0.00025
   37   -0.00003
   38    0.00000
   39    0.00006
   40    0.00005
   41    0.00065
   42   -0.00010
   43    0.00043
   44   -0.00017
   45   -0.00026
   46    0.00147
   47   -0.00005
   48   -0.00001
   49    0.00003
   50   -0.00071
   51    0.00003
   52   -0.00026
   53    0.00008
   54   -0.00022
   55   -0.00032
   56    0.00003
   57    0.00001
   58    0.00001
   59   -0.00007
   60    0.00038
   61    0.00004
   62    0.00065
   63   -0.00018
   64   -0.00014
   65    0.00110
   66    0.00003
   67    0.00017
   68   -0.00002
   69   -0.00004
   70    0.00063
   71    0.00014
   72   -0.00015
   73    0.00022
   74   -0.00027
   75    0.00004
   76   -0.00001
   77   -0.00003
   78    0.00004
   79    0.00060
   80   -0.00005
   81    0.00053
   82   -0.00016
   83   -0.00029
   84    0.00154
   85    0.00000
   86   -0.00002
   87   -0.00001
   88    0.00068
   89    0.00017
   90    0.00010
   91   -0.00001
   92   -0.00027
   93   -0.00029
   94   -0.00002
   95    0.00008
   96    0.00001
   97   -0.00009
   98    0.00041
   99    0.00002
  100    0.00052
  101   -0.00017
  102    0.00054
  103   -0.00158
  104   -0.00008
  105    0.00003
  106   -0.00042
  107    0.00022
  108   -0.00022
  109    0.00094
  110    0.00018
  111    0.00006
  112    0.00020
  113   -0.00001
  114    0.00002
  115   -0.00004
  116    0.00018
  117    0.00071
  118    0.00000
  119    0.00054
  120   -0.00017
  121    0.00055
  122   -0.00158
  123   -0.00000
  124    0.00005
  125    0.00044
  126    0.00019
  127   -0.00015
  128   -0.00107
  129    0.00008
  130    0.00018
  131    0.00021
  132    0.00000
  133   -0.00006
  134    0.00001
  135   -0.00005
  136    0.00046
  137    0.00019
  138    0.00056
 Ene=    -2.6608
 Spin= Alpha
 Occup= 1.0
    1   -0.00006
    2    0.00027
    3    0.00003
    4   -0.95709
    5   -0.27652
    6    0.06590
    7    0.00478
    8    0.00486
    9    0.00533
   10   -0.00027
   11   -0.00046
   12   -0.00055
   13    0.00007
   14    0.00008
   15   -0.00006
   16   -0.00016
   17    0.00015
   18   -0.00004
   19    0.00052
   20   -0.00046
   21   -0.00022
   22    0.00007
   23   -0.00024
   24    0.00017
   25    0.00047
   26    0.00071
   27   -0.00455
   28    0.00036
   29    0.00040
   30    0.00016
   31   -0.00290
   32    0.00286
   33   -0.00065
   34    0.00054
   35   -0.00066
   36    0.00080
   37    0.00055
   38    0.00015
   39   -0.00015
   40    0.00097
   41   -0.00023
   42   -0.00049
   43   -0.00106
   44    0.00112
   45    0.00132
   46   -0.00875
   47    0.00100
   48    0.00028
   49    0.00004
   50    0.00717
   51   -0.00067
   52    0.00003
   53   -0.00252
   54    0.00175
   55    0.00176
   56   -0.00008
   57   -0.00018
   58    0.00001
   59   -0.00018
   60   -0.00079
   61    0.00009
   62   -0.00147
   63   -0.00046
   64   -0.00036
   65    0.00348
   66    0.00034
   67    0.00052
   68    0.00004
   69   -0.00214
   70    0.00345
   71   -0.00055
   72   -0.00069
   73    0.00118
   74   -0.00054
   75   -0.00072
   76   -0.00007
   77    0.00004
   78   -0.00022
   79    0.00139
   80    0.00048
   81    0.00068
   82   -0.00105
   83   -0.00150
   84    0.00865
   85    0.00069
   86    0.00020
   87    0.00015
   88    0.00663
   89   -0.00100
   90   -0.00014
   91    0.00208
   92   -0.00180
   93   -0.00179
   94    0.00007
   95    0.00030
   96   -0.00007
   97    0.00035
   98    0.00101
   99   -0.00036
  100    0.00084
  101    0.00006
  102    0.00036
  103   -0.00158
  104    0.00014
  105    0.00010
  106   -0.00020
  107   -0.00275
  108   -0.00140
  109    0.00145
  110    0.00038
  111    0.00015
  112   -0.00005
  113    0.00021
  114    0.00105
  115    0.00026
  116    0.00036
  117   -0.00105
  118   -0.00067
  119   -0.00094
  120   -0.00013
  121   -0.00069
  122    0.00303
  123    0.00019
  124    0.00014
  125   -0.00018
  126   -0.00341
  127   -0.00149
  128    0.00134
  129   -0.00026
  130   -0.00052
  131   -0.00020
  132   -0.00024
  133   -0.00096
  134   -0.00026
  135    0.00063
  136    0.00108
  137   -0.00094
  138    0.00017
 Ene=    -2.6557
 Spin= Alpha
 Occup= 1.0
    1    0.00033
    2   -0.00015
    3   -0.00022
    4    0.27260
    5   -0.95815
    6   -0.06201
    7    0.00249
    8    0.00143
    9    0.00014
   10   -0.00028
   11   -0.00000
   12    0.00011
   13   -0.00010
   14   -0.00021
   15    0.00021
   16    0.00025
   17   -0.00007
   18   -0.00005
   19    0.00013
   20   -0.00005
   21   -0.00030
   22   -0.00013
   23    0.00009
   24    0.00044
   25    0.00107
   26    0.00053
   27   -0.00635
   28    0.00002
   29    0.00150
   30    0.00020
   31    0.00080
   32    0.00596
   33    0.00008
   34    0.00124
   35   -0.00287
   36    0.00127
   37   -0.00045
   38   -0.00004
   39   -0.00021
   40    0.00001
   41   -0.00098
   42    0.00005
   43   -0.00053
   44   -0.00023
   45   -0.00014
   46    0.00125
   47   -0.00035
   48    0.00018
   49    0.00002
   50   -0.00055
   51   -0.00169
   52   -0.00019
   53    0.00048
   54   -0.00025
   55   -0.00027
   56    0.00081
   57    0.00006
   58    0.00003
   59   -0.00019
   60   -0.00037
   61   -0.00011
   62   -0.00036
   63   -0.00117
   64   -0.00036
   65    0.00682
   66    0.00025
   67    0.00190
   68   -0.00005
   69    0.00056
   70    0.00577
   71   -0.00017
   72   -0.00117
   73    0.00296
   74   -0.00111
   75    0.00061
   76    0.00001
   77   -0.00012
   78   -0.00022
   79    0.00064
   80   -0.00015
   81    0.00064
   82    0.00019
   83    0.00003
   84   -0.00061
   85   -0.00028
   86    0.00032
   87   -0.00001
   88   -0.00080
   89   -0.00258
   90   -0.00010
   91   -0.00070
   92    0.00030
   93    0.00026
   94   -0.00050
   95   -0.00011
   96   -0.00017
   97    0.00042
   98    0.00086
   99   -0.00066
  100   -0.00036
  101    0.00015
  102   -0.00012
  103   -0.00085
  104    0.00014
  105    0.00019
  106    0.00047
  107   -0.00002
  108   -0.00317
  109    0.00011
  110    0.00008
  111   -0.00016
  112   -0.00021
  113    0.00017
  114   -0.00035
  115    0.00096
  116    0.00085
  117    0.00083
  118   -0.00034
  119   -0.00040
  120   -0.00010
  121    0.00054
  122   -0.00079
  123    0.00004
  124    0.00014
  125    0.00048
  126    0.00048
  127   -0.00204
  128    0.00107
  129    0.00019
  130    0.00007
  131    0.00079
  132   -0.00008
  133    0.00034
  134   -0.00101
  135    0.00030
  136    0.00031