[Molden Format]
[Title]
Written by TeraChem
[Atoms] Angs
Fe   1   16     -0.00039   -0.00042    0.00016
O   2   8      0.06911    2.02146    0.12487
H   3   1      0.96110    2.38763   -0.02462
H   4   1     -0.55512    2.62195   -0.32115
O   5   8      2.02096    0.12572    0.06506
H   6   1      2.61800   -0.33643   -0.55067
H   7   1      2.38612   -0.01061    0.95958
O   8   8     -0.12706   -2.02168   -0.06742
H   9   1      0.02637   -2.38983   -0.95789
H   10   1      0.31519   -2.62112    0.56045
O   11   8     -2.02178   -0.06746   -0.12789
H   12   1     -2.62361    0.55256    0.32206
H   13   1     -2.38770   -0.96104    0.01236
O   14   8      0.12619    0.06937    2.02106
H   15   1     -0.01100    0.96458    2.38426
H   16   1     -0.32836   -0.54660    2.62365
O   17   8     -0.06191   -0.12910   -2.02085
H   18   1      0.55092    0.33865   -2.61656
H   19   1     -0.95704    0.00237   -2.38647
[GTO]
    1 0
 s    3 1.00
            6.422000            -0.392788
            1.826000             0.771264
            0.713500             0.492023
 s    4 1.00
            6.422000             0.178688
            1.826000            -0.419403
            0.713500            -0.456819
            0.102100             1.103505
 s    1 1.00
            0.036300             1.000000
 p    3 1.00
           19.480000            -0.047028
            2.389000             0.624884
            0.779500             0.472254
 p    1 1.00
            0.074000             1.000000
 p    1 1.00
            0.022000             1.000000
 d    4 1.00
           37.080000             0.032900
           10.100000             0.178742
            3.220000             0.448766
            0.962800             0.587636
 d    1 1.00
            0.226200             1.000000

    2 0
 s    6 1.00
         5484.671700             0.001831
          825.234950             0.013950
          188.046960             0.068445
           52.964500             0.232714
           16.897570             0.470193
            5.799635             0.358521
 s    3 1.00
           15.539616            -0.110778
            3.599934            -0.148026
            1.013762             1.130767
 s    1 1.00
            0.270006             1.000000
 p    3 1.00
           15.539616             0.070874
            3.599934             0.339753
            1.013762             0.727159
 p    1 1.00
            0.270006             1.000000
 d    1 1.00
            0.800000             1.000000

    3 0
 s    3 1.00
           18.731137             0.033495
            2.825394             0.234727
            0.640122             0.813757
 s    1 1.00
            0.161278             1.000000

    4 0
 s    3 1.00
           18.731137             0.033495
            2.825394             0.234727
            0.640122             0.813757
 s    1 1.00
            0.161278             1.000000

    5 0
 s    6 1.00
         5484.671700             0.001831
          825.234950             0.013950
          188.046960             0.068445
           52.964500             0.232714
           16.897570             0.470193
            5.799635             0.358521
 s    3 1.00
           15.539616            -0.110778
            3.599934            -0.148026
            1.013762             1.130767
 s    1 1.00
            0.270006             1.000000
 p    3 1.00
           15.539616             0.070874
            3.599934             0.339753
            1.013762             0.727159
 p    1 1.00
            0.270006             1.000000
 d    1 1.00
            0.800000             1.000000

    6 0
 s    3 1.00
           18.731137             0.033495
            2.825394             0.234727
            0.640122             0.813757
 s    1 1.00
            0.161278             1.000000

    7 0
 s    3 1.00
           18.731137             0.033495
            2.825394             0.234727
            0.640122             0.813757
 s    1 1.00
            0.161278             1.000000

    8 0
 s    6 1.00
         5484.671700             0.001831
          825.234950             0.013950
          188.046960             0.068445
           52.964500             0.232714
           16.897570             0.470193
            5.799635             0.358521
 s    3 1.00
           15.539616            -0.110778
            3.599934            -0.148026
            1.013762             1.130767
 s    1 1.00
            0.270006             1.000000
 p    3 1.00
           15.539616             0.070874
            3.599934             0.339753
            1.013762             0.727159
 p    1 1.00
            0.270006             1.000000
 d    1 1.00
            0.800000             1.000000

    9 0
 s    3 1.00
           18.731137             0.033495
            2.825394             0.234727
            0.640122             0.813757
 s    1 1.00
            0.161278             1.000000

   10 0
 s    3 1.00
           18.731137             0.033495
            2.825394             0.234727
            0.640122             0.813757
 s    1 1.00
            0.161278             1.000000

   11 0
 s    6 1.00
         5484.671700             0.001831
          825.234950             0.013950
          188.046960             0.068445
           52.964500             0.232714
           16.897570             0.470193
            5.799635             0.358521
 s    3 1.00
           15.539616            -0.110778
            3.599934            -0.148026
            1.013762             1.130767
 s    1 1.00
            0.270006             1.000000
 p    3 1.00
           15.539616             0.070874
            3.599934             0.339753
            1.013762             0.727159
 p    1 1.00
            0.270006             1.000000
 d    1 1.00
            0.800000             1.000000

   12 0
 s    3 1.00
           18.731137             0.033495
            2.825394             0.234727
            0.640122             0.813757
 s    1 1.00
            0.161278             1.000000

   13 0
 s    3 1.00
           18.731137             0.033495
            2.825394             0.234727
            0.640122             0.813757
 s    1 1.00
            0.161278             1.000000

   14 0
 s    6 1.00
         5484.671700             0.001831
          825.234950             0.013950
          188.046960             0.068445
           52.964500             0.232714
           16.897570             0.470193
            5.799635             0.358521
 s    3 1.00
           15.539616            -0.110778
            3.599934            -0.148026
            1.013762             1.130767
 s    1 1.00
            0.270006             1.000000
 p    3 1.00
           15.539616             0.070874
            3.599934             0.339753
            1.013762             0.727159
 p    1 1.00
            0.270006             1.000000
 d    1 1.00
            0.800000             1.000000

   15 0
 s    3 1.00
           18.731137             0.033495
            2.825394             0.234727
            0.640122             0.813757
 s    1 1.00
            0.161278             1.000000

   16 0
 s    3 1.00
           18.731137             0.033495
            2.825394             0.234727
            0.640122             0.813757
 s    1 1.00
            0.161278             1.000000

   17 0
 s    6 1.00
         5484.671700             0.001831
          825.234950             0.013950
          188.046960             0.068445
           52.964500             0.232714
           16.897570             0.470193
            5.799635             0.358521
 s    3 1.00
           15.539616            -0.110778
            3.599934            -0.148026
            1.013762             1.130767
 s    1 1.00
            0.270006             1.000000
 p    3 1.00
           15.539616             0.070874
            3.599934             0.339753
            1.013762             0.727159
 p    1 1.00
            0.270006             1.000000
 d    1 1.00
            0.800000             1.000000

   18 0
 s    3 1.00
           18.731137             0.033495
            2.825394             0.234727
            0.640122             0.813757
 s    1 1.00
            0.161278             1.000000

   19 0
 s    3 1.00
           18.731137             0.033495
            2.825394             0.234727
            0.640122             0.813757
 s    1 1.00
            0.161278             1.000000

[MO]
 Ene=   -19.5141
 Spin= Alpha
 Occup= 2.0
    1   -0.00053
    2   -0.00102
    3   -0.00003
    4    0.00000
    5   -0.00014
    6    0.00001
    7   -0.00022
    8   -0.00199
    9   -0.00064
   10    0.00002
   11    0.00034
   12    0.00000
   13   -0.00001
   14   -0.00009
   15   -0.00001
   16   -0.00001
   17    0.00000
   18   -0.00000
   19    0.00010
   20   -0.00023
   21    0.00014
   22    0.00002
   23   -0.00002
   24   -0.00005
   25    0.99156
   26    0.02572
   27    0.01265
   28    0.00021
   29    0.00070
   30   -0.00058
   31   -0.00006
   32   -0.00081
   33    0.00014
   34   -0.00834
   35   -0.00818
   36   -0.00828
   37    0.00002
   38   -0.00002
   39    0.00001
   40    0.00035
   41   -0.00077
   42    0.00042
   43   -0.00088
   44   -0.00224
   45   -0.00011
   46    0.00028
   47   -0.00002
   48   -0.00002
   49    0.00000
   50   -0.00006
   51    0.00017
   52    0.00000
   53    0.00000
   54   -0.00002
   55    0.00003
   56    0.00002
   57   -0.00001
   58   -0.00001
   59    0.00003
   60   -0.00011
   61   -0.00005
   62    0.00021
   63   -0.03065
   64   -0.00071
   65   -0.00083
   66   -0.00002
   67    0.00004
   68    0.00001
   69    0.00004
   70   -0.00008
   71   -0.00001
   72    0.00029
   73    0.00039
   74    0.00030
   75    0.00001
   76    0.00000
   77    0.00001
   78    0.00003
   79   -0.00026
   80    0.00001
   81   -0.00009
   82   -0.00745
   83   -0.00023
   84    0.00003
   85    0.00000
   86   -0.00000
   87   -0.00002
   88    0.00004
   89    0.00012
   90    0.00009
   91    0.00007
   92    0.00005
   93    0.00006
   94    0.00002
   95    0.00001
   96    0.00001
   97   -0.00007
   98    0.00018
   99    0.00004
  100   -0.00021
  101   -0.00335
  102   -0.00018
  103    0.00047
  104    0.00000
  105    0.00002
  106   -0.00003
  107   -0.00001
  108    0.00002
  109   -0.00004
  110    0.00003
  111   -0.00006
  112    0.00000
  113    0.00001
  114   -0.00001
  115   -0.00000
  116    0.00006
  117    0.00001
  118   -0.00005
  119    0.00002
  120   -0.03502
  121   -0.00087
  122   -0.00071
  123    0.00001
  124   -0.00006
  125    0.00002
  126   -0.00000
  127    0.00022
  128   -0.00002
  129    0.00035
  130    0.00035
  131    0.00036
  132    0.00000
  133   -0.00000
  134    0.00002
  135   -0.00004
  136    0.00008
  137   -0.00001
  138   -0.00002
 Ene=   -19.5140
 Spin= Alpha
 Occup= 2.0
    1   -0.00055
    2   -0.00106
    3   -0.00003
    4   -0.00001
    5    0.00013
    6   -0.00000
    7    0.00062
    8    0.00186
    9    0.00017
   10    0.00000
   11   -0.00032
   12   -0.00002
   13   -0.00001
   14   -0.00009
   15   -0.00001
   16   -0.00000
   17    0.00000
   18   -0.00001
   19    0.00014
   20   -0.00024
   21    0.00011
   22   -0.00005
   23   -0.00002
   24    0.00002
   25    0.02968
   26    0.00085
   27   -0.00006
   28    0.00000
   29    0.00001
   30   -0.00001
   31    0.00001
   32    0.00003
   33   -0.00003
   34   -0.00021
   35   -0.00011
   36   -0.00021
   37    0.00001
   38    0.00000
   39    0.00001
   40    0.00005
   41   -0.00032
   42    0.00003
   43   -0.00014
   44   -0.02695
   45   -0.00066
   46   -0.00060
   47   -0.00002
   48    0.00005
   49   -0.00001
   50    0.00001
   51   -0.00021
   52    0.00000
   53    0.00029
   54    0.00028
   55    0.00028
   56    0.00002
   57   -0.00000
   58    0.00000
   59   -0.00004
   60    0.00007
   61   -0.00001
   62   -0.00001
   63    0.99135
   64    0.02572
   65    0.01261
   66    0.00058
   67   -0.00070
   68   -0.00020
   69   -0.00013
   70    0.00081
   71    0.00005
   72   -0.00828
   73   -0.00817
   74   -0.00833
   75    0.00001
   76   -0.00002
   77    0.00002
   78    0.00035
   79   -0.00078
   80    0.00042
   81   -0.00089
   82   -0.00376
   83   -0.00019
   84    0.00047
   85    0.00003
   86   -0.00002
   87   -0.00000
   88    0.00004
   89   -0.00001
   90    0.00001
   91    0.00001
   92   -0.00006
   93    0.00004
   94   -0.00000
   95   -0.00001
   96    0.00001
   97   -0.00006
   98    0.00003
   99    0.00006
  100   -0.00001
  101   -0.02163
  102   -0.00061
  103   -0.00011
  104    0.00003
  105    0.00000
  106   -0.00002
  107   -0.00009
  108   -0.00012
  109   -0.00003
  110    0.00018
  111    0.00016
  112    0.00019
  113    0.00001
  114    0.00001
  115    0.00002
  116    0.00003
  117   -0.00019
  118   -0.00008
  119    0.00019
  120   -0.02388
  121   -0.00067
  122   -0.00001
  123    0.00000
  124    0.00000
  125    0.00003
  126   -0.00000
  127   -0.00015
  128    0.00005
  129    0.00021
  130    0.00016
  131    0.00018
  132   -0.00001
  133   -0.00001
  134    0.00002
  135    0.00002
  136   -0.00008
  137   -0.00006
  138    0.00023
 Ene=   -19.5140
 Spin= Alpha
 Occup= 2.0
    1    0.00057
    2    0.00109
    3    0.00003
    4    0.00000
    5    0.00002
    6   -0.00014
    7   -0.00023
    8   -0.00057
    9   -0.00198
   10    0.00002
   11   -0.00001
   12    0.00034
   13    0.00001
   14    0.00001
   15    0.00009
   16   -0.00000
   17    0.00001
   18    0.00000
   19   -0.00010
   20   -0.00011
   21    0.00021
   22    0.00002
   23   -0.00002
   24    0.00005
   25   -0.03545
   26   -0.00096
   27   -0.00016
   28   -0.00000
   29   -0.00002
   30   -0.00002
   31    0.00000
   32    0.00003
   33    0.00021
   34    0.00024
   35    0.00022
   36    0.00024
   37   -0.00000
   38   -0.00000
   39   -0.00002
   40   -0.00002
   41    0.00008
   42    0.00001
   43   -0.00001
   44    0.01739
   45    0.00049
   46    0.00008
   47    0.00001
   48   -0.00003
   49   -0.00000
   50    0.00004
   51    0.00009
   52    0.00012
   53   -0.00016
   54   -0.00014
   55   -0.00014
   56   -0.00001
   57   -0.00002
   58   -0.00001
   59    0.00007
   60   -0.00018
   61   -0.00003
   62    0.00018
   63   -0.02128
   64   -0.00047
   65   -0.00075
   66   -0.00001
   67   -0.00001
   68    0.00003
   69   -0.00000
   70   -0.00006
   71    0.00001
   72    0.00017
   73    0.00019
   74    0.00027
   75    0.00001
   76   -0.00001
   77    0.00000
   78   -0.00007
   79    0.00002
   80    0.00004
   81    0.00001
   82    0.00455
   83    0.00018
   84   -0.00028
   85   -0.00002
   86    0.00000
   87   -0.00002
   88   -0.00007
   89    0.00000
   90    0.00017
   91   -0.00002
   92   -0.00004
   93    0.00000
   94    0.00001
   95   -0.00001
   96    0.00001
   97   -0.00003
   98    0.00009
   99    0.00005
  100   -0.00020
  101    0.04628
  102    0.00113
  103    0.00099
  104   -0.00003
  105    0.00001
  106    0.00005
  107    0.00004
  108   -0.00001
  109   -0.00009
  110   -0.00042
  111   -0.00042
  112   -0.00051
  113   -0.00000
  114   -0.00001
  115   -0.00001
  116   -0.00003
  117    0.00026
  118    0.00001
  119    0.00007
  120   -0.99058
  121   -0.02569
  122   -0.01261
  123    0.00022
  124   -0.00058
  125    0.00069
  126   -0.00005
  127    0.00013
  128   -0.00081
  129    0.00832
  130    0.00827
  131    0.00816
  132    0.00002
  133   -0.00002
  134   -0.00001
  135   -0.00041
  136    0.00088
  137   -0.00035
  138    0.00076
 Ene=   -19.5140
 Spin= Alpha
 Occup= 2.0
    1   -0.00058
    2   -0.00112
    3   -0.00003
    4    0.00001
    5    0.00001
    6   -0.00013
    7   -0.00061
    8   -0.00012
    9   -0.00185
   10    0.00000
   11    0.00001
   12    0.00031
   13   -0.00001
   14   -0.00001
   15   -0.00009
   16    0.00000
   17   -0.00000
   18   -0.00001
   19    0.00015
   20    0.00009
   21   -0.00024
   22   -0.00002
   23   -0.00005
   24    0.00002
   25    0.00520
   26    0.00009
   27    0.00033
   28    0.00000
   29   -0.00001
   30   -0.00002
   31    0.00001
   32   -0.00007
   33    0.00015
   34   -0.00003
   35   -0.00005
   36   -0.00008
   37   -0.00001
   38   -0.00001
   39    0.00002
   40   -0.00005
   41    0.00019
   42    0.00003
   43   -0.00011
   44   -0.01341
   45   -0.00044
   46    0.00035
   47   -0.00003
   48    0.00001
   49    0.00002
   50   -0.00004
   51   -0.00002
   52    0.00001
   53    0.00009
   54    0.00012
   55    0.00002
   56   -0.00001
   57   -0.00000
   58    0.00001
   59   -0.00006
   60    0.00004
   61    0.00006
   62    0.00000
   63    0.02198
   64    0.00052
   65    0.00045
   66   -0.00001
   67   -0.00001
   68   -0.00001
   69    0.00009
   70    0.00007
   71    0.00012
   72   -0.00019
   73   -0.00017
   74   -0.00020
   75    0.00001
   76    0.00001
   77    0.00002
   78    0.00005
   79   -0.00023
   80   -0.00006
   81    0.00015
   82   -0.04903
   83   -0.00124
   84   -0.00084
   85    0.00004
   86    0.00001
   87   -0.00006
   88   -0.00002
   89   -0.00000
   90    0.00021
   91    0.00047
   92    0.00046
   93    0.00046
   94   -0.00000
   95    0.00002
   96    0.00000
   97   -0.00005
   98    0.00009
   99   -0.00002
  100    0.00001
  101    0.99010
  102    0.02568
  103    0.01260
  104   -0.00057
  105    0.00022
  106    0.00069
  107    0.00013
  108   -0.00006
  109   -0.00081
  110   -0.00827
  111   -0.00832
  112   -0.00815
  113   -0.00002
  114    0.00001
  115    0.00002
  116    0.00036
  117   -0.00080
  118    0.00041
  119   -0.00089
  120    0.04518
  121    0.00125
  122    0.00014
  123   -0.00001
  124    0.00002
  125   -0.00002
  126   -0.00001
  127    0.00003
  128   -0.00002
  129   -0.00034
  130   -0.00034
  131   -0.00024
  132   -0.00000
  133    0.00001
  134    0.00001
  135    0.00004
  136   -0.00016
  137    0.00005
  138   -0.00032
 Ene=   -19.5140
 Spin= Alpha
 Occup= 2.0
    1   -0.00053
    2   -0.00101
    3   -0.00003
    4   -0.00015
    5    0.00002
    6    0.00001
    7   -0.00212
    8   -0.00054
    9   -0.00022
   10    0.00037
   11   -0.00002
   12    0.00001
   13   -0.00008
   14   -0.00001
   15   -0.00001
   16   -0.00000
   17   -0.00001
   18    0.00000
   19   -0.00019
   20    0.00012
   21    0.00008
   22   -0.00005
   23    0.00002
   24   -0.00002
   25    0.00267
   26   -0.00001
   27    0.00050
   28    0.00002
   29   -0.00002
   30   -0.00000
   31    0.00002
   32   -0.00004
   33   -0.00000
   34   -0.00011
   35   -0.00004
   36   -0.00001
   37   -0.00001
   38    0.00001
   39   -0.00001
   40    0.00006
   41    0.00001
   42   -0.00004
   43   -0.00001
   44    0.98411
   45    0.02552
   46    0.01258
   47    0.00069
   48   -0.00057
   49    0.00022
   50   -0.00081
   51    0.00013
   52   -0.00006
   53   -0.00812
   54   -0.00822
   55   -0.00828
   56    0.00001
   57    0.00002
   58   -0.00002
   59    0.00041
   60   -0.00086
   61    0.00035
   62   -0.00074
   63    0.02675
   64    0.00074
   65    0.00005
   66   -0.00002
   67   -0.00002
   68   -0.00000
   69    0.00023
   70    0.00002
   71    0.00000
   72   -0.00016
   73   -0.00015
   74   -0.00017
   75    0.00002
   76    0.00000
   77    0.00000
   78    0.00002
   79   -0.00008
   80   -0.00002
   81    0.00003
   82   -0.12620
   83   -0.00320
   84   -0.00201
   85    0.00010
   86    0.00003
   87   -0.00008
   88   -0.00015
   89   -0.00002
   90    0.00005
   91    0.00117
   92    0.00110
   93    0.00109
   94    0.00001
   95    0.00001
   96    0.00000
   97   -0.00004
   98    0.00000
   99   -0.00001
  100   -0.00018
  101    0.00569
  102    0.00009
  103    0.00040
  104   -0.00002
  105    0.00001
  106   -0.00001
  107    0.00018
  108   -0.00000
  109   -0.00007
  110   -0.00009
  111   -0.00004
  112   -0.00006
  113   -0.00001
  114    0.00001
  115   -0.00001
  116   -0.00004
  117    0.00019
  118    0.00003
  119   -0.00011
  120    0.01629
  121    0.00039
  122    0.00030
  123   -0.00001
  124   -0.00001
  125   -0.00001
  126    0.00012
  127    0.00008
  128    0.00006
  129   -0.00014
  130   -0.00014
  131   -0.00012
  132    0.00001
  133    0.00002
  134    0.00001
  135   -0.00005
  136    0.00015
  137    0.00003
  138   -0.00021
 Ene=   -19.5139
 Spin= Alpha
 Occup= 2.0
    1   -0.00069
    2   -0.00132
    3   -0.00004
    4    0.00012
    5   -0.00000
    6   -0.00002
    7    0.00163
    8    0.00010
    9    0.00046
   10   -0.00028
   11   -0.00002
   12    0.00003
   13   -0.00010
   14   -0.00001
   15   -0.00002
   16   -0.00001
   17   -0.00001
   18    0.00000
   19   -0.00024
   20    0.00012
   21    0.00013
   22    0.00001
   23   -0.00005
   24   -0.00002
   25    0.00838
   26    0.00016
   27    0.00034
   28    0.00001
   29    0.00000
   30    0.00001
   31   -0.00012
   32   -0.00007
   33   -0.00008
   34   -0.00009
   35   -0.00006
   36   -0.00008
   37    0.00002
   38    0.00001
   39    0.00001
   40    0.00005
   41   -0.00020
   42   -0.00007
   43    0.00015
   44    0.12547
   45    0.00333
   46    0.00121
   47    0.00007
   48   -0.00007
   49    0.00003
   50   -0.00006
   51   -0.00002
   52    0.00000
   53   -0.00090
   54   -0.00101
   55   -0.00102
   56    0.00001
   57    0.00002
   58   -0.00000
   59    0.00007
   60   -0.00022
   61    0.00009
   62   -0.00039
   63    0.00816
   64    0.00016
   65    0.00038
   66    0.00002
   67    0.00001
   68   -0.00001
   69   -0.00013
   70    0.00008
   71    0.00000
   72   -0.00010
   73   -0.00007
   74   -0.00005
   75    0.00002
   76   -0.00001
   77   -0.00001
   78   -0.00004
   79    0.00017
   80    0.00002
   81   -0.00009
   82    0.98337
   83    0.02552
   84    0.01247
   85   -0.00069
   86   -0.00021
   87    0.00056
   88    0.00080
   89    0.00006
   90   -0.00011
   91   -0.00808
   92   -0.00826
   93   -0.00820
   94    0.00002
   95    0.00001
   96   -0.00002
   97    0.00041
   98   -0.00089
   99    0.00036
  100   -0.00081
  101    0.04981
  102    0.00132
  103    0.00043
  104    0.00000
  105    0.00001
  106    0.00003
  107   -0.00018
  108   -0.00000
  109   -0.00006
  110   -0.00037
  111   -0.00037
  112   -0.00034
  113    0.00000
  114    0.00003
  115   -0.00000
  116    0.00002
  117   -0.00006
  118   -0.00000
  119   -0.00001
  120    0.00855
  121    0.00013
  122    0.00061
  123   -0.00002
  124   -0.00000
  125    0.00002
  126   -0.00000
  127    0.00002
  128    0.00006
  129   -0.00016
  130   -0.00006
  131   -0.00008
  132    0.00001
  133    0.00000
  134   -0.00001
  135   -0.00006
  136    0.00003
  137    0.00007
  138   -0.00006
 Ene=    -3.7913
 Spin= Alpha
 Occup= 2.0
    1   -0.99314
    2    0.02447
    3    0.00015
    4    0.00001
    5   -0.00000
    6   -0.00001
    7    0.00001
    8    0.00000
    9   -0.00001
   10    0.00000
   11    0.00000
   12   -0.00000
   13    0.00254
   14    0.00253
   15    0.00254
   16   -0.00057
   17   -0.00055
   18   -0.00057
   19   -0.01408
   20   -0.01408
   21   -0.01409
   22   -0.00015
   23   -0.00015
   24   -0.00015
   25    0.00018
   26   -0.00052
   27    0.00120
   28   -0.00001
   29    0.00051
   30    0.00007
   31    0.00024
   32   -0.00023
   33   -0.00016
   34   -0.00004
   35   -0.00056
   36   -0.00013
   37    0.00001
   38   -0.00001
   39   -0.00008
   40   -0.00013
   41   -0.00085
   42    0.00001
   43   -0.00065
   44    0.00018
   45   -0.00052
   46    0.00121
   47    0.00051
   48    0.00008
   49   -0.00002
   50   -0.00022
   51   -0.00017
   52    0.00025
   53   -0.00056
   54   -0.00013
   55   -0.00004
   56   -0.00008
   57    0.00001
   58   -0.00000
   59    0.00001
   60   -0.00066
   61   -0.00014
   62   -0.00085
   63    0.00018
   64   -0.00052
   65    0.00120
   66   -0.00008
   67   -0.00051
   68    0.00001
   69    0.00017
   70    0.00023
   71   -0.00024
   72   -0.00013
   73   -0.00056
   74   -0.00004
   75   -0.00008
   76   -0.00001
   77    0.00001
   78   -0.00013
   79   -0.00085
   80    0.00001
   81   -0.00065
   82    0.00018
   83   -0.00052
   84    0.00120
   85   -0.00051
   86    0.00002
   87   -0.00008
   88    0.00023
   89   -0.00025
   90    0.00016
   91   -0.00056
   92   -0.00004
   93   -0.00013
   94    0.00001
   95   -0.00008
   96   -0.00001
   97    0.00001
   98   -0.00065
   99   -0.00014
  100   -0.00085
  101    0.00018
  102   -0.00052
  103    0.00121
  104    0.00008
  105   -0.00002
  106    0.00051
  107   -0.00016
  108    0.00025
  109   -0.00023
  110   -0.00013
  111   -0.00004
  112   -0.00056
  113   -0.00001
  114   -0.00008
  115    0.00001
  116   -0.00014
  117   -0.00085
  118    0.00001
  119   -0.00065
  120    0.00018
  121   -0.00052
  122    0.00122
  123    0.00002
  124   -0.00008
  125   -0.00051
  126   -0.00025
  127    0.00017
  128    0.00023
  129   -0.00004
  130   -0.00013
  131   -0.00056
  132   -0.00000
  133    0.00001
  134   -0.00008
  135    0.00001
  136   -0.00066
  137   -0.00014
  138   -0.00085
 Ene=    -2.5704
 Spin= Alpha
 Occup= 2.0
    1   -0.00000
    2   -0.00001
    3    0.00001
    4   -0.57188
    5   -0.58245
    6   -0.57191
    7    0.00314
    8    0.00314
    9    0.00313
   10   -0.00022
   11   -0.00022
   12   -0.00022
   13    0.00001
   14   -0.00000
   15   -0.00001
   16    0.00000
   17   -0.00000
   18   -0.00000
   19   -0.00002
   20    0.00000
   21    0.00004
   22    0.00000
   23    0.00001
   24   -0.00000
   25    0.00120
   26   -0.00090
   27   -0.00502
   28    0.00019
   29    0.00246
   30    0.00038
   31   -0.00210
   32    0.00513
   33   -0.00146
   34    0.00045
   35   -0.00267
   36    0.00073
   37    0.00044
   38    0.00020
   39    0.00040
   40    0.00060
   41   -0.00051
   42   -0.00040
   43   -0.00150
   44    0.00118
   45   -0.00089
   46   -0.00493
   47    0.00243
   48    0.00038
   49    0.00018
   50    0.00504
   51   -0.00151
   52   -0.00213
   53   -0.00263
   54    0.00072
   55    0.00042
   56    0.00041
   57    0.00045
   58    0.00020
   59   -0.00041
   60   -0.00149
   61    0.00061
   62   -0.00050
   63   -0.00120
   64    0.00091
   65    0.00502
   66    0.00039
   67    0.00247
   68    0.00019
   69   -0.00145
   70    0.00513
   71   -0.00211
   72   -0.00072
   73    0.00268
   74   -0.00044
   75   -0.00039
   76   -0.00020
   77   -0.00044
   78   -0.00059
   79    0.00051
   80    0.00040
   81    0.00150
   82   -0.00118
   83    0.00088
   84    0.00498
   85    0.00242
   86    0.00019
   87    0.00038
   88    0.00507
   89   -0.00215
   90   -0.00147
   91    0.00263
   92   -0.00043
   93   -0.00073
   94   -0.00046
   95   -0.00039
   96   -0.00020
   97    0.00041
   98    0.00151
   99   -0.00061
  100    0.00049
  101    0.00119
  102   -0.00088
  103   -0.00499
  104    0.00038
  105    0.00019
  106    0.00243
  107   -0.00148
  108   -0.00215
  109    0.00508
  110    0.00073
  111    0.00043
  112   -0.00264
  113    0.00020
  114    0.00040
  115    0.00045
  116    0.00062
  117   -0.00049
  118   -0.00040
  119   -0.00151
  120   -0.00118
  121    0.00090
  122    0.00493
  123    0.00018
  124    0.00039
  125    0.00243
  126   -0.00214
  127   -0.00151
  128    0.00503
  129   -0.00042
  130   -0.00072
  131    0.00263
  132   -0.00019
  133   -0.00046
  134   -0.00040
  135    0.00041
  136    0.00148
  137   -0.00061
  138    0.00050
 Ene=    -2.5662
 Spin= Alpha
 Occup= 2.0
    1    0.00003
    2    0.00003
    3   -0.00003
    4    0.68953
    5    0.02925
    6   -0.71928
    7    0.00249
    8    0.00012
    9   -0.00259
   10   -0.00035
   11   -0.00001
   12    0.00036
   13    0.00009
   14   -0.00017
   15    0.00008
   16    0.00006
   17   -0.00012
   18    0.00007
   19   -0.00035
   20    0.00055
   21   -0.00033
   22   -0.00015
   23    0.00035
   24   -0.00018
   25   -0.00009
   26   -0.00023
   27    0.00128
   28   -0.00008
   29   -0.00010
   30   -0.00005
   31    0.00214
   32    0.00045
   33   -0.00114
   34   -0.00004
   35   -0.00030
   36   -0.00012
   37   -0.00071
   38   -0.00011
   39    0.00083
   40   -0.00060
   41   -0.00127
   42    0.00004
   43    0.00028
   44   -0.00123
   45    0.00123
   46    0.00389
   47   -0.00268
   48   -0.00029
   49    0.00002
   50   -0.00441
   51   -0.00046
   52   -0.00248
   53    0.00282
   54   -0.00053
   55   -0.00056
   56    0.00022
   57    0.00087
   58    0.00020
   59   -0.00034
   60   -0.00069
   61    0.00041
   62    0.00109
   63    0.00002
   64   -0.00032
   65    0.00090
   66    0.00002
   67   -0.00013
   68    0.00007
   69    0.00106
   70   -0.00080
   71   -0.00226
   72   -0.00007
   73   -0.00053
   74    0.00001
   75    0.00078
   76   -0.00013
   77   -0.00075
   78   -0.00061
   79   -0.00131
   80    0.00007
   81    0.00034
   82    0.00126
   83   -0.00095
   84   -0.00499
   85   -0.00265
   86   -0.00006
   87   -0.00033
   88   -0.00368
   89   -0.00016
   90   -0.00159
   91   -0.00237
   92    0.00056
   93    0.00063
   94   -0.00009
   95   -0.00107
   96   -0.00008
   97    0.00029
   98    0.00039
   99    0.00023
  100    0.00029
  101    0.00132
  102   -0.00102
  103   -0.00511
  104    0.00034
  105    0.00006
  106    0.00278
  107    0.00157
  108    0.00036
  109    0.00390
  110    0.00064
  111    0.00058
  112   -0.00251
  113   -0.00009
  114   -0.00105
  115   -0.00016
  116    0.00018
  117    0.00018
  118    0.00031
  119    0.00044
  120   -0.00129
  121    0.00126
  122    0.00417
  123   -0.00002
  124    0.00031
  125    0.00280
  126    0.00239
  127    0.00058
  128    0.00456
  129   -0.00059
  130   -0.00056
  131    0.00291
  132    0.00020
  133    0.00084
  134    0.00030
  135   -0.00035
  136   -0.00069