[Molden Format]
[Title]
Written by TeraChem
[Atoms] Angs
Fe   1   16     -0.00295   -0.00761   -0.00137
O   2   8     -0.07043    2.14737    0.12385
H   3   1      0.75766    2.64566    0.24432
H   4   1     -0.66111    2.72876   -0.38707
O   5   8      2.12756    0.09358    0.12069
H   6   1      2.80090   -0.13851   -0.54327
H   7   1      2.53022   -0.07476    0.99153
O   8   8     -0.10965   -2.14172   -0.12231
H   9   1      0.09632   -2.55924   -0.97779
H   10   1      0.06480   -2.81531    0.55866
O   11   8     -2.14499    0.06184   -0.12711
H   12   1     -2.72902    0.67514    0.35327
H   13   1     -2.64743   -0.76605   -0.23108
O   14   8      0.11510   -0.03424    2.16762
H   15   1      0.13854    0.80822    2.65555
H   16   1     -0.30119   -0.67508    2.77052
O   17   8      0.07947   -0.11226   -2.16757
H   18   1      0.69158    0.38452   -2.73856
H   19   1     -0.73539   -0.22031   -2.68987
[GTO]
    1 0
 s    3 1.00
            6.422000            -0.392788
            1.826000             0.771264
            0.713500             0.492023
 s    4 1.00
            6.422000             0.178688
            1.826000            -0.419403
            0.713500            -0.456819
            0.102100             1.103505
 s    1 1.00
            0.036300             1.000000
 p    3 1.00
           19.480000            -0.047028
            2.389000             0.624884
            0.779500             0.472254
 p    1 1.00
            0.074000             1.000000
 p    1 1.00
            0.022000             1.000000
 d    4 1.00
           37.080000             0.032900
           10.100000             0.178742
            3.220000             0.448766
            0.962800             0.587636
 d    1 1.00
            0.226200             1.000000

    2 0
 s    6 1.00
         5484.671700             0.001831
          825.234950             0.013950
          188.046960             0.068445
           52.964500             0.232714
           16.897570             0.470193
            5.799635             0.358521
 s    3 1.00
           15.539616            -0.110778
            3.599934            -0.148026
            1.013762             1.130767
 s    1 1.00
            0.270006             1.000000
 p    3 1.00
           15.539616             0.070874
            3.599934             0.339753
            1.013762             0.727159
 p    1 1.00
            0.270006             1.000000
 d    1 1.00
            0.800000             1.000000

    3 0
 s    3 1.00
           18.731137             0.033495
            2.825394             0.234727
            0.640122             0.813757
 s    1 1.00
            0.161278             1.000000

    4 0
 s    3 1.00
           18.731137             0.033495
            2.825394             0.234727
            0.640122             0.813757
 s    1 1.00
            0.161278             1.000000

    5 0
 s    6 1.00
         5484.671700             0.001831
          825.234950             0.013950
          188.046960             0.068445
           52.964500             0.232714
           16.897570             0.470193
            5.799635             0.358521
 s    3 1.00
           15.539616            -0.110778
            3.599934            -0.148026
            1.013762             1.130767
 s    1 1.00
            0.270006             1.000000
 p    3 1.00
           15.539616             0.070874
            3.599934             0.339753
            1.013762             0.727159
 p    1 1.00
            0.270006             1.000000
 d    1 1.00
            0.800000             1.000000

    6 0
 s    3 1.00
           18.731137             0.033495
            2.825394             0.234727
            0.640122             0.813757
 s    1 1.00
            0.161278             1.000000

    7 0
 s    3 1.00
           18.731137             0.033495
            2.825394             0.234727
            0.640122             0.813757
 s    1 1.00
            0.161278             1.000000

    8 0
 s    6 1.00
         5484.671700             0.001831
          825.234950             0.013950
          188.046960             0.068445
           52.964500             0.232714
           16.897570             0.470193
            5.799635             0.358521
 s    3 1.00
           15.539616            -0.110778
            3.599934            -0.148026
            1.013762             1.130767
 s    1 1.00
            0.270006             1.000000
 p    3 1.00
           15.539616             0.070874
            3.599934             0.339753
            1.013762             0.727159
 p    1 1.00
            0.270006             1.000000
 d    1 1.00
            0.800000             1.000000

    9 0
 s    3 1.00
           18.731137             0.033495
            2.825394             0.234727
            0.640122             0.813757
 s    1 1.00
            0.161278             1.000000

   10 0
 s    3 1.00
           18.731137             0.033495
            2.825394             0.234727
            0.640122             0.813757
 s    1 1.00
            0.161278             1.000000

   11 0
 s    6 1.00
         5484.671700             0.001831
          825.234950             0.013950
          188.046960             0.068445
           52.964500             0.232714
           16.897570             0.470193
            5.799635             0.358521
 s    3 1.00
           15.539616            -0.110778
            3.599934            -0.148026
            1.013762             1.130767
 s    1 1.00
            0.270006             1.000000
 p    3 1.00
           15.539616             0.070874
            3.599934             0.339753
            1.013762             0.727159
 p    1 1.00
            0.270006             1.000000
 d    1 1.00
            0.800000             1.000000

   12 0
 s    3 1.00
           18.731137             0.033495
            2.825394             0.234727
            0.640122             0.813757
 s    1 1.00
            0.161278             1.000000

   13 0
 s    3 1.00
           18.731137             0.033495
            2.825394             0.234727
            0.640122             0.813757
 s    1 1.00
            0.161278             1.000000

   14 0
 s    6 1.00
         5484.671700             0.001831
          825.234950             0.013950
          188.046960             0.068445
           52.964500             0.232714
           16.897570             0.470193
            5.799635             0.358521
 s    3 1.00
           15.539616            -0.110778
            3.599934            -0.148026
            1.013762             1.130767
 s    1 1.00
            0.270006             1.000000
 p    3 1.00
           15.539616             0.070874
            3.599934             0.339753
            1.013762             0.727159
 p    1 1.00
            0.270006             1.000000
 d    1 1.00
            0.800000             1.000000

   15 0
 s    3 1.00
           18.731137             0.033495
            2.825394             0.234727
            0.640122             0.813757
 s    1 1.00
            0.161278             1.000000

   16 0
 s    3 1.00
           18.731137             0.033495
            2.825394             0.234727
            0.640122             0.813757
 s    1 1.00
            0.161278             1.000000

   17 0
 s    6 1.00
         5484.671700             0.001831
          825.234950             0.013950
          188.046960             0.068445
           52.964500             0.232714
           16.897570             0.470193
            5.799635             0.358521
 s    3 1.00
           15.539616            -0.110778
            3.599934            -0.148026
            1.013762             1.130767
 s    1 1.00
            0.270006             1.000000
 p    3 1.00
           15.539616             0.070874
            3.599934             0.339753
            1.013762             0.727159
 p    1 1.00
            0.270006             1.000000
 d    1 1.00
            0.800000             1.000000

   18 0
 s    3 1.00
           18.731137             0.033495
            2.825394             0.234727
            0.640122             0.813757
 s    1 1.00
            0.161278             1.000000

   19 0
 s    3 1.00
           18.731137             0.033495
            2.825394             0.234727
            0.640122             0.813757
 s    1 1.00
            0.161278             1.000000

[MO]
 Ene=   -19.4974
 Spin= Alpha
 Occup= 1.0
    1    0.00064
    2    0.00115
    3    0.00031
    4    0.00009
    5   -0.00001
    6   -0.00000
    7    0.00191
    8    0.00032
    9    0.00018
   10   -0.00036
   11    0.00002
   12   -0.00001
   13    0.00002
   14   -0.00006
   15   -0.00005
   16   -0.00000
   17    0.00001
   18   -0.00000
   19    0.00028
   20   -0.00022
   21   -0.00027
   22    0.00007
   23    0.00002
   24    0.00002
   25    0.00016
   26    0.00011
   27   -0.00044
   28    0.00002
   29   -0.00001
   30    0.00000
   31   -0.00018
   32    0.00013
   33   -0.00002
   34    0.00006
   35    0.00005
   36    0.00005
   37    0.00003
   38    0.00001
   39    0.00000
   40    0.00001
   41   -0.00007
   42   -0.00000
   43   -0.00006
   44   -0.99266
   45   -0.02575
   46   -0.01273
   47   -0.00085
   48    0.00037
   49   -0.00016
   50    0.00090
   51   -0.00006
   52    0.00007
   53    0.00820
   54    0.00832
   55    0.00840
   56   -0.00001
   57   -0.00003
   58    0.00001
   59   -0.00043
   60    0.00090
   61   -0.00037
   62    0.00081
   63    0.00349
   64    0.00010
   65    0.00008
   66    0.00005
   67    0.00001
   68    0.00001
   69   -0.00023
   70   -0.00005
   71   -0.00003
   72   -0.00004
   73   -0.00005
   74   -0.00004
   75   -0.00004
   76   -0.00000
   77    0.00000
   78    0.00001
   79   -0.00005
   80    0.00003
   81   -0.00006
   82    0.00184
   83   -0.00006
   84    0.00059
   85   -0.00002
   86    0.00000
   87    0.00000
   88    0.00003
   89   -0.00000
   90   -0.00000
   91   -0.00018
   92   -0.00008
   93   -0.00008
   94    0.00000
   95   -0.00001
   96    0.00000
   97   -0.00001
   98    0.00000
   99   -0.00004
  100    0.00014
  101    0.00027
  102    0.00006
  103   -0.00020
  104    0.00003
  105   -0.00001
  106   -0.00000
  107   -0.00019
  108    0.00001
  109    0.00011
  110    0.00002
  111   -0.00001
  112    0.00001
  113    0.00001
  114    0.00002
  115    0.00000
  116    0.00005
  117   -0.00021
  118   -0.00002
  119   -0.00001
  120    0.00020
  121    0.00005
  122   -0.00016
  123    0.00003
  124    0.00001
  125    0.00001
  126   -0.00019
  127   -0.00004
  128   -0.00007
  129    0.00003
  130    0.00001
  131    0.00001
  132   -0.00001
  133   -0.00002
  134    0.00000
  135    0.00008
  136   -0.00017
  137   -0.00007
  138    0.00010
 Ene=   -19.4970
 Spin= Alpha
 Occup= 1.0
    1   -0.00064
    2   -0.00117
    3   -0.00027
    4   -0.00001
    5    0.00008
    6   -0.00000
    7    0.00029
    8    0.00192
    9    0.00021
   10    0.00002
   11   -0.00036
   12   -0.00000
   13    0.00006
   14   -0.00002
   15    0.00005
   16    0.00000
   17    0.00000
   18   -0.00001
   19    0.00021
   20   -0.00027
   21    0.00027
   22   -0.00007
   23   -0.00002
   24   -0.00002
   25   -0.00081
   26    0.00009
   27   -0.00059
   28   -0.00000
   29   -0.00002
   30    0.00000
   31    0.00000
   32    0.00004
   33   -0.00001
   34    0.00007
   35    0.00017
   36    0.00008
   37   -0.00000
   38   -0.00000
   39    0.00001
   40    0.00004
   41   -0.00015
   42    0.00001
   43   -0.00002
   44    0.00349
   45    0.00008
   46    0.00003
   47    0.00002
   48    0.00005
   49    0.00001
   50   -0.00006
   51   -0.00023
   52   -0.00004
   53   -0.00001
   54   -0.00002
   55   -0.00002
   56    0.00004
   57   -0.00000
   58    0.00001
   59   -0.00004
   60    0.00007
   61   -0.00000
   62    0.00003
   63    0.99267
   64    0.02575
   65    0.01273
   66    0.00035
   67   -0.00087
   68   -0.00013
   69   -0.00004
   70    0.00090
   71    0.00006
   72   -0.00832
   73   -0.00821
   74   -0.00840
   75    0.00001
   76   -0.00000
   77    0.00003
   78    0.00037
   79   -0.00081
   80    0.00043
   81   -0.00090
   82   -0.00070
   83   -0.00012
   84    0.00042
   85   -0.00001
   86    0.00002
   87    0.00000
   88    0.00011
   89   -0.00018
   90   -0.00002
   91   -0.00004
   92   -0.00006
   93   -0.00004
   94   -0.00003
   95   -0.00000
   96   -0.00001
   97    0.00000
   98    0.00004
   99   -0.00001
  100    0.00006
  101   -0.00019
  102   -0.00005
  103    0.00015
  104    0.00001
  105    0.00003
  106    0.00001
  107   -0.00004
  108   -0.00021
  109   -0.00006
  110   -0.00001
  111   -0.00003
  112   -0.00001
  113    0.00001
  114   -0.00000
  115    0.00001
  116    0.00008
  117   -0.00011
  118   -0.00009
  119    0.00016
  120   -0.00027
  121   -0.00006
  122    0.00022
  123   -0.00001
  124    0.00002
  125   -0.00000
  126    0.00002
  127   -0.00018
  128    0.00011
  129    0.00000
  130   -0.00002
  131   -0.00001
  132   -0.00001
  133   -0.00000
  134   -0.00002
  135    0.00003
  136   -0.00002
  137   -0.00005
  138    0.00022
 Ene=   -19.4963
 Spin= Alpha
 Occup= 1.0
    1    0.00063
    2    0.00113
    3    0.00028
    4   -0.00008
    5    0.00000
    6    0.00001
    7   -0.00187
    8   -0.00003
    9   -0.00044
   10    0.00035
   11   -0.00000
   12   -0.00003
   13    0.00002
   14   -0.00006
   15   -0.00006
   16   -0.00000
   17   -0.00000
   18   -0.00000
   19    0.00029
   20   -0.00023
   21   -0.00023
   22   -0.00003
   23    0.00007
   24    0.00003
   25    0.00061
   26    0.00007
   27   -0.00019
   28   -0.00000
   29    0.00000
   30   -0.00001
   31    0.00012
   32    0.00005
   33    0.00004
   34    0.00002
   35   -0.00000
   36   -0.00001
   37   -0.00002
   38   -0.00000
   39   -0.00000
   40   -0.00004
   41    0.00010
   42    0.00005
   43   -0.00016
   44   -0.00190
   45   -0.00015
   46    0.00054
   47    0.00001
   48    0.00000
   49    0.00000
   50   -0.00002
   51    0.00001
   52   -0.00001
   53   -0.00015
   54   -0.00005
   55   -0.00004
   56   -0.00001
   57   -0.00001
   58   -0.00000
   59   -0.00002
   60    0.00001
   61   -0.00004
   62    0.00016
   63   -0.00066
   64    0.00005
   65   -0.00028
   66   -0.00005
   67    0.00002
   68   -0.00001
   69    0.00024
   70   -0.00014
   71    0.00005
   72    0.00004
   73    0.00003
   74    0.00003
   75    0.00003
   76    0.00001
   77    0.00000
   78    0.00004
   79   -0.00014
   80   -0.00003
   81   -0.00003
   82   -0.99267
   83   -0.02576
   84   -0.01267
   85    0.00086
   86    0.00017
   87   -0.00035
   88   -0.00090
   89    0.00002
   90    0.00006
   91    0.00819
   92    0.00837
   93    0.00832
   94   -0.00000
   95   -0.00002
   96    0.00003
   97   -0.00043
   98    0.00090
   99   -0.00036
  100    0.00081
  101    0.00058
  102    0.00002
  103    0.00005
  104   -0.00005
  105    0.00000
  106   -0.00001
  107    0.00022
  108   -0.00001
  109    0.00002
  110   -0.00002
  111   -0.00001
  112   -0.00002
  113   -0.00000
  114   -0.00003
  115    0.00001
  116    0.00000
  117    0.00001
  118    0.00004
  119   -0.00005
  120    0.00019
  121    0.00011
  122   -0.00043
  123   -0.00002
  124    0.00000
  125    0.00002
  126    0.00018
  127    0.00000
  128   -0.00015
  129    0.00006
  130    0.00005
  131    0.00005
  132    0.00000
  133    0.00003
  134   -0.00000
  135   -0.00000
  136   -0.00008
  137    0.00003
  138   -0.00010
 Ene=   -19.4944
 Spin= Alpha
 Occup= 1.0
    1   -0.00063
    2   -0.00113
    3   -0.00027
    4    0.00000
    5   -0.00008
    6    0.00002
    7   -0.00004
    8   -0.00186
    9   -0.00044
   10   -0.00000
   11    0.00035
   12   -0.00003
   13    0.00006
   14   -0.00001
   15    0.00006
   16    0.00000
   17    0.00000
   18    0.00000
   19    0.00023
   20   -0.00030
   21    0.00026
   22    0.00003
   23   -0.00002
   24   -0.00007
   25    0.99267
   26    0.02576
   27    0.01263
   28    0.00019
   29    0.00086
   30   -0.00036
   31    0.00002
   32   -0.00089
   33    0.00006
   34   -0.00836
   35   -0.00818
   36   -0.00832
   37    0.00000
   38   -0.00003
   39    0.00002
   40    0.00036
   41   -0.00081
   42    0.00043
   43   -0.00090
   44    0.00013
   45   -0.00007
   46    0.00027
   47    0.00002
   48   -0.00005
   49   -0.00001
   50   -0.00014
   51    0.00024
   52    0.00005
   53   -0.00003
   54   -0.00003
   55   -0.00003
   56   -0.00003
   57   -0.00000
   58   -0.00001
   59    0.00003
   60    0.00002
   61   -0.00004
   62    0.00015
   63    0.00087
   64    0.00013
   65   -0.00055
   66   -0.00000
   67    0.00001
   68    0.00000
   69    0.00001
   70   -0.00002
   71   -0.00001
   72    0.00006
   73    0.00016
   74    0.00005
   75    0.00001
   76    0.00000
   77    0.00001
   78    0.00004
   79   -0.00015
   80    0.00002
   81   -0.00000
   82    0.00060
   83   -0.00003
   84    0.00021
   85    0.00000
   86   -0.00000
   87   -0.00001
   88    0.00005
   89    0.00012
   90    0.00004
   91   -0.00001
   92   -0.00003
   93   -0.00000
   94    0.00002
   95    0.00000
   96    0.00000
   97   -0.00005
   98    0.00015
   99    0.00004
  100   -0.00011
  101   -0.00147
  102   -0.00014
  103    0.00043
  104    0.00000
  105   -0.00002
  106    0.00001
  107    0.00000
  108    0.00017
  109   -0.00013
  110   -0.00003
  111   -0.00005
  112   -0.00004
  113   -0.00000
  114    0.00000
  115   -0.00003
  116   -0.00001
  117    0.00008
  118   -0.00000
  119    0.00007
  120   -0.00348
  121   -0.00010
  122   -0.00010
  123    0.00001
  124   -0.00005
  125   -0.00000
  126   -0.00001
  127    0.00022
  128    0.00000
  129    0.00004
  130    0.00005
  131    0.00004
  132    0.00001
  133   -0.00001
  134    0.00003
  135   -0.00005
  136    0.00006
  137    0.00000
  138   -0.00002
 Ene=   -19.4941
 Spin= Alpha
 Occup= 1.0
    1    0.00062
    2    0.00112
    3    0.00020
    4   -0.00001
    5   -0.00001
    6    0.00007
    7    0.00028
    8    0.00010
    9    0.00192
   10    0.00001
   11    0.00001
   12   -0.00037
   13   -0.00005
   14   -0.00005
   15    0.00001
   16    0.00000
   17   -0.00000
   18    0.00000
   19   -0.00029
   20   -0.00024
   21    0.00028
   22   -0.00001
   23    0.00007
   24   -0.00003
   25   -0.00131
   26    0.00003
   27   -0.00027
   28   -0.00001
   29   -0.00002
   30    0.00004
   31   -0.00001
   32    0.00014
   33   -0.00022
   34    0.00003
   35    0.00003
   36    0.00005
   37   -0.00001
   38    0.00001
   39    0.00003
   40    0.00006
   41   -0.00020
   42   -0.00005
   43    0.00004
   44   -0.00025
   45    0.00008
   46   -0.00041
   47    0.00002
   48    0.00000
   49    0.00000
   50    0.00003
   51   -0.00001
   52   -0.00011
   53    0.00003
   54    0.00001
   55    0.00006
   56    0.00000
   57    0.00003
   58   -0.00001
   59    0.00002
   60   -0.00001
   61   -0.00003
   62    0.00003
   63   -0.00016
   64    0.00005
   65   -0.00018
   66    0.00001
   67    0.00001
   68    0.00003
   69   -0.00005
   70   -0.00004
   71   -0.00022
   72    0.00003
   73    0.00002
   74    0.00003
   75   -0.00001
   76   -0.00001
   77   -0.00002
   78   -0.00005
   79    0.00009
   80    0.00008
   81   -0.00011
   82   -0.00057
   83   -0.00001
   84    0.00002
   85    0.00001
   86   -0.00000
   87    0.00005
   88   -0.00001
   89   -0.00002
   90   -0.00024
   91   -0.00000
   92    0.00000
   93   -0.00001
   94    0.00001
   95   -0.00003
   96   -0.00001
   97    0.00006
   98   -0.00008
   99   -0.00002
  100    0.00002
  101   -0.99204
  102   -0.02574
  103   -0.01263
  104    0.00035
  105   -0.00016
  106   -0.00089
  107   -0.00003
  108   -0.00001
  109    0.00089
  110    0.00831
  111    0.00837
  112    0.00818
  113    0.00003
  114   -0.00002
  115   -0.00001
  116   -0.00037
  117    0.00083
  118   -0.00043
  119    0.00090
  120    0.03571
  121    0.00083
  122    0.00099
  123   -0.00000
  124    0.00001
  125   -0.00005
  126   -0.00001
  127    0.00000
  128    0.00007
  129   -0.00036
  130   -0.00036
  131   -0.00045
  132    0.00000
  133    0.00000
  134   -0.00001
  135   -0.00000
  136    0.00000
  137   -0.00002
  138    0.00010
 Ene=   -19.4941
 Spin= Alpha
 Occup= 1.0
    1   -0.00066
    2   -0.00120
    3   -0.00022
    4   -0.00001
    5   -0.00001
    6    0.00007
    7    0.00003
    8    0.00029
    9    0.00179
   10    0.00001
   11    0.00001
   12   -0.00034
   13    0.00006
   14    0.00005
   15   -0.00001
   16   -0.00000
   17   -0.00000
   18    0.00000
   19    0.00025
   20    0.00030
   21   -0.00030
   22    0.00001
   23    0.00004
   24   -0.00006
   25    0.00354
   26    0.00008
   27    0.00002
   28   -0.00000
   29    0.00001
   30    0.00005
   31   -0.00001
   32   -0.00002
   33   -0.00023
   34   -0.00003
   35   -0.00002
   36   -0.00001
   37   -0.00001
   38    0.00001
   39    0.00003
   40    0.00001
   41   -0.00001
   42   -0.00006
   43    0.00007
   44    0.00019
   45   -0.00006
   46    0.00023
   47    0.00001
   48    0.00001
   49    0.00003
   50   -0.00004
   51   -0.00006
   52   -0.00019
   53   -0.00002
   54   -0.00003
   55   -0.00003
   56    0.00001
   57    0.00002
   58    0.00001
   59   -0.00007
   60    0.00011
   61    0.00005
   62   -0.00009
   63    0.00026
   64   -0.00008
   65    0.00043
   66    0.00000
   67    0.00001
   68    0.00000
   69    0.00000
   70    0.00005
   71   -0.00010
   72   -0.00002
   73   -0.00003
   74   -0.00007
   75   -0.00000
   76    0.00001
   77   -0.00003
   78    0.00003
   79   -0.00001
   80   -0.00002
   81    0.00002
   82    0.00018
   83   -0.00006
   84    0.00025
   85   -0.00002
   86   -0.00000
   87    0.00004
   88    0.00014
   89   -0.00002
   90   -0.00021
   91   -0.00002
   92   -0.00003
   93   -0.00004
   94    0.00001
   95   -0.00003
   96   -0.00001
   97    0.00005
   98   -0.00003
   99   -0.00006
  100    0.00020
  101    0.03577
  102    0.00103
  103   -0.00009
  104   -0.00002
  105    0.00001
  106    0.00002
  107    0.00001
  108   -0.00000
  109    0.00000
  110   -0.00023
  111   -0.00025
  112   -0.00014
  113   -0.00000
  114    0.00001
  115    0.00000
  116    0.00005
  117   -0.00017
  118    0.00003
  119   -0.00006
  120    0.99203
  121    0.02575
  122    0.01258
  123   -0.00016
  124    0.00035
  125   -0.00088
  126   -0.00003
  127   -0.00004
  128    0.00089
  129   -0.00836
  130   -0.00831
  131   -0.00816
  132   -0.00003
  133    0.00000
  134    0.00002
  135    0.00042
  136   -0.00089
  137    0.00037
  138   -0.00084
 Ene=    -3.9308
 Spin= Alpha
 Occup= 1.0
    1   -0.98976
    2    0.03646
    3   -0.00283
    4   -0.00002
    5    0.00009
    6   -0.00005
    7   -0.00026
    8    0.00039
    9   -0.00000
   10    0.00004
   11   -0.00004
   12    0.00000
   13   -0.00215
   14    0.00170
   15    0.01040
   16    0.01243
   17    0.00334
   18    0.00266
   19   -0.01402
   20   -0.01509
   21   -0.01738
   22   -0.00150
   23   -0.00034
   24   -0.00032
   25    0.00021
   26    0.00042
   27   -0.00221
   28   -0.00010
   29    0.00000
   30   -0.00002
   31    0.00062
   32    0.00073
   33    0.00019
   34    0.00038
   35    0.00014
   36    0.00034
   37   -0.00005
   38   -0.00001
   39   -0.00003
   40   -0.00013
   41   -0.00062
   42    0.00018
   43   -0.00027
   44    0.00023
   45    0.00048
   46   -0.00250
   47    0.00006
   48   -0.00005
   49   -0.00006
   50    0.00079
   51    0.00030
   52    0.00043
   53    0.00004
   54    0.00038
   55    0.00045
   56   -0.00016
   57   -0.00002
   58   -0.00003
   59    0.00016
   60   -0.00019
   61   -0.00004
   62   -0.00052
   63    0.00021
   64    0.00037
   65   -0.00200
   66    0.00005
   67   -0.00006
   68    0.00005
   69   -0.00029
   70   -0.00042
   71   -0.00036
   72    0.00030
   73    0.00012
   74    0.00037
   75   -0.00014
   76   -0.00002
   77   -0.00000
   78   -0.00004
   79   -0.00045
   80    0.00014
   81   -0.00014
   82    0.00023
   83    0.00052
   84   -0.00262
   85   -0.00002
   86    0.00010
   87    0.00002
   88   -0.00104
   89   -0.00061
   90   -0.00022
   91    0.00003
   92    0.00045
   93    0.00040
   94   -0.00004
   95   -0.00005
   96   -0.00001
   97    0.00019
   98   -0.00030
   99   -0.00012
  100   -0.00061
  101    0.00016
  102    0.00015
  103   -0.00113
  104   -0.00003
  105   -0.00004
  106    0.00002
  107    0.00014
  108    0.00025
  109   -0.00013
  110    0.00017
  111    0.00021
  112    0.00033
  113    0.00001
  114   -0.00001
  115    0.00001
  116   -0.00005
  117   -0.00045
  118    0.00011
  119   -0.00016
  120    0.00016
  121    0.00016
  122   -0.00114
  123    0.00004
  124    0.00003
  125   -0.00002
  126   -0.00027
  127   -0.00015
  128    0.00011
  129    0.00020
  130    0.00018
  131    0.00033
  132    0.00002
  133   -0.00001
  134   -0.00000
  135    0.00011
  136   -0.00021
  137   -0.00005
  138   -0.00042
 Ene=    -2.7544
 Spin= Alpha
 Occup= 1.0
    1    0.00006
    2   -0.00008
    3   -0.00020
    4   -0.76802
    5    0.63771
    6    0.03553
    7    0.00322
    8   -0.00246
    9   -0.00004
   10   -0.00039
   11    0.00030
   12    0.00001
   13    0.00014
   14    0.00012
   15   -0.00024
   16   -0.00016
   17    0.00001
   18    0.00003
   19   -0.00075
   20   -0.00085
   21    0.00137
   22    0.00074
   23   -0.00009
   24   -0.00002
   25   -0.00058
   26   -0.00060
   27    0.00422
   28    0.00037
   29   -0.00088
   30   -0.00005
   31   -0.00231
   32   -0.00381
   33   -0.00050
   34   -0.00083
   35    0.00203
   36   -0.00064
   37    0.00035
   38    0.00011
   39    0.00010
   40    0.00049
   41    0.00101
   42   -0.00060
   43    0.00033
   44    0.00067
   45    0.00044
   46   -0.00431
   47    0.00130
   48   -0.00009
   49    0.00001
   50    0.00320
   51    0.00143
   52    0.00057
   53   -0.00213
   54    0.00062
   55    0.00048
   56   -0.00067
   57   -0.00017
   58   -0.00007
   59    0.00051
   60   -0.00056
   61    0.00027
   62   -0.00072
   63    0.00053
   64    0.00033
   65   -0.00332
   66    0.00015
   67   -0.00106
   68   -0.00003
   69   -0.00166
   70   -0.00240
   71   -0.00022
   72    0.00046
   73   -0.00171
   74    0.00033
   75   -0.00075
   76   -0.00004
   77   -0.00010
   78    0.00034
   79   -0.00050
   80    0.00041
   81   -0.00048
   82   -0.00073
   83   -0.00066
   84    0.00513
   85    0.00117
   86   -0.00034
   87    0.00006
   88    0.00445
   89    0.00201
   90    0.00062
   91    0.00241
   92   -0.00090
   93   -0.00077
   94    0.00025
   95    0.00020
   96    0.00011
   97   -0.00064
   98    0.00046
   99    0.00033
  100    0.00120
  101    0.00000
  102    0.00001
  103   -0.00009
  104    0.00021
  105   -0.00023
  106   -0.00004
  107   -0.00131
  108    0.00161
  109    0.00076
  110    0.00005
  111    0.00015
  112   -0.00028
  113   -0.00005
  114    0.00058
  115   -0.00038
  116   -0.00052
  117   -0.00025
  118    0.00003
  119    0.00008
  120    0.00007
  121    0.00007
  122   -0.00050
  123    0.00028
  124   -0.00018
  125   -0.00006
  126   -0.00192
  127    0.00098
  128   -0.00116
  129    0.00024
  130    0.00010
  131   -0.00053
  132   -0.00006
  133   -0.00044
  134    0.00049
  135    0.00012
  136    0.00004
  137   -0.00055
  138   -0.00031
 Ene=    -2.7017
 Spin= Alpha
 Occup= 1.0
    1    0.00009
    2    0.00004
    3   -0.00014
    4    0.41560
    5    0.54117
    6   -0.72896
    7   -0.00052
    8   -0.00053
    9    0.00008
   10    0.00008
   11    0.00007
   12    0.00003
   13    0.00015
   14   -0.00012
   15    0.00001
   16   -0.00003
   17   -0.00012
   18    0.00014
   19   -0.00043
   20    0.00034
   21   -0.00010
   22    0.00008
   23    0.00047
   24   -0.00033
   25   -0.00052
   26   -0.00055
   27    0.00373
   28   -0.00006
   29   -0.00064
   30    0.00010
   31    0.00082
   32   -0.00243
   33   -0.00124
   34   -0.00064
   35    0.00117
   36   -0.00069
   37   -0.00037
   38   -0.00000
   39    0.00069
   40   -0.00027
   41    0.00007
   42   -0.00016
   43    0.00017
   44   -0.00041
   45   -0.00020
   46    0.00231
   47   -0.00059
   48   -0.00015
   49    0.00022
   50   -0.00249
   51    0.00079
   52   -0.00233
   53    0.00130
   54   -0.00050
   55   -0.00052
   56   -0.00034
   57    0.00059
   58    0.00010
   59   -0.00028
   60   -0.00021
   61    0.00055
   62    0.00101
   63    0.00052
   64    0.00028
   65   -0.00300
   66   -0.00015
   67   -0.00078
   68    0.00021
   69    0.00060
   70   -0.00302
   71   -0.00233
   72    0.00063
   73   -0.00165
   74    0.00061
   75    0.00020
   76   -0.00012
   77   -0.00060
   78   -0.00051
   79   -0.00099
   80    0.00033
   81    0.00021
   82    0.00040
   83    0.00040
   84   -0.00291
   85   -0.00054
   86   -0.00012
   87    0.00010
   88   -0.00165
   89    0.00123
   90   -0.00116
   91   -0.00082
   92    0.00042
   93    0.00052
   94    0.00044
   95   -0.00069
   96    0.00002
   97    0.00008
   98   -0.00020
   99    0.00037
  100    0.00017
  101    0.00065
  102    0.00058
  103   -0.00414
  104   -0.00003
  105   -0.00023
  106    0.00084
  107    0.00096
  108    0.00156
  109    0.00373
  110    0.00082
  111    0.00094
  112   -0.00199
  113   -0.00009
  114   -0.00044
  115   -0.00023
  116   -0.00032
  117   -0.00074
  118    0.00041
  119    0.00010
  120   -0.00067
  121   -0.00062
  122    0.00439
  123   -0.00023
  124   -0.00007
  125    0.00085
  126    0.00123
  127    0.00122
  128    0.00388
  129   -0.00098
  130   -0.00084
  131    0.00200
  132    0.00006
  133    0.00006
  134    0.00051
  135   -0.00043
  136   -0.00005