[Molden Format]
[Title]
Written by TeraChem
[Atoms] Angs
Fe   1   16      0.02471    0.04136    0.00699
N   2   7     -0.07261    2.29596    0.01311
H   3   1     -1.01612    2.68618   -0.05581
H   4   1      0.33043    2.72902    0.84843
H   5   1      0.44025    2.71013   -0.76936
N   6   7      2.30942   -0.02158   -0.00217
H   7   1      2.77637    0.88903    0.01855
H   8   1      2.70397   -0.53062    0.79286
H   9   1      2.69590   -0.48850   -0.82662
N   10   7     -0.02453   -2.24810   -0.01333
H   11   1      0.87425   -2.73670    0.01554
H   12   1     -0.55037   -2.62062    0.78123
H   13   1     -0.50109   -2.62501   -0.83680
N   14   7     -2.28611   -0.01929   -0.00102
H   15   1     -2.69474   -0.95269    0.09328
H   16   1     -2.70418    0.51716    0.76350
H   17   1     -2.71523    0.36254   -0.84775
N   18   7      0.04386    0.01582    2.30396
H   19   1      0.18408   -0.91342    2.70926
H   20   1      0.78974    0.58509    2.71210
H   21   1     -0.81335    0.36073    2.74320
N   22   7      0.04187   -0.00605   -2.29932
H   23   1      0.27926   -0.91562   -2.70335
H   24   1     -0.84374    0.24876   -2.74352
H   25   1      0.72796    0.63641   -2.70297
[GTO]
    1 0
 s    3 1.00
            6.422000            -0.392788
            1.826000             0.771264
            0.713500             0.492023
 s    4 1.00
            6.422000             0.178688
            1.826000            -0.419403
            0.713500            -0.456819
            0.102100             1.103505
 s    1 1.00
            0.036300             1.000000
 p    3 1.00
           19.480000            -0.047028
            2.389000             0.624884
            0.779500             0.472254
 p    1 1.00
            0.074000             1.000000
 p    1 1.00
            0.022000             1.000000
 d    4 1.00
           37.080000             0.032900
           10.100000             0.178742
            3.220000             0.448766
            0.962800             0.587636
 d    1 1.00
            0.226200             1.000000

    2 0
 s    6 1.00
         4173.511000             0.001835
          627.457900             0.013995
          142.902100             0.068587
           40.234330             0.232241
           12.820210             0.469070
            4.390437             0.360455
 s    3 1.00
           11.626358            -0.114961
            2.716280            -0.169118
            0.772218             1.145852
 s    1 1.00
            0.212031             1.000000
 p    3 1.00
           11.626358             0.067580
            2.716280             0.323907
            0.772218             0.740895
 p    1 1.00
            0.212031             1.000000
 d    1 1.00
            0.800000             1.000000

    3 0
 s    3 1.00
           18.731137             0.033495
            2.825394             0.234727
            0.640122             0.813757
 s    1 1.00
            0.161278             1.000000

    4 0
 s    3 1.00
           18.731137             0.033495
            2.825394             0.234727
            0.640122             0.813757
 s    1 1.00
            0.161278             1.000000

    5 0
 s    3 1.00
           18.731137             0.033495
            2.825394             0.234727
            0.640122             0.813757
 s    1 1.00
            0.161278             1.000000

    6 0
 s    6 1.00
         4173.511000             0.001835
          627.457900             0.013995
          142.902100             0.068587
           40.234330             0.232241
           12.820210             0.469070
            4.390437             0.360455
 s    3 1.00
           11.626358            -0.114961
            2.716280            -0.169118
            0.772218             1.145852
 s    1 1.00
            0.212031             1.000000
 p    3 1.00
           11.626358             0.067580
            2.716280             0.323907
            0.772218             0.740895
 p    1 1.00
            0.212031             1.000000
 d    1 1.00
            0.800000             1.000000

    7 0
 s    3 1.00
           18.731137             0.033495
            2.825394             0.234727
            0.640122             0.813757
 s    1 1.00
            0.161278             1.000000

    8 0
 s    3 1.00
           18.731137             0.033495
            2.825394             0.234727
            0.640122             0.813757
 s    1 1.00
            0.161278             1.000000

    9 0
 s    3 1.00
           18.731137             0.033495
            2.825394             0.234727
            0.640122             0.813757
 s    1 1.00
            0.161278             1.000000

   10 0
 s    6 1.00
         4173.511000             0.001835
          627.457900             0.013995
          142.902100             0.068587
           40.234330             0.232241
           12.820210             0.469070
            4.390437             0.360455
 s    3 1.00
           11.626358            -0.114961
            2.716280            -0.169118
            0.772218             1.145852
 s    1 1.00
            0.212031             1.000000
 p    3 1.00
           11.626358             0.067580
            2.716280             0.323907
            0.772218             0.740895
 p    1 1.00
            0.212031             1.000000
 d    1 1.00
            0.800000             1.000000

   11 0
 s    3 1.00
           18.731137             0.033495
            2.825394             0.234727
            0.640122             0.813757
 s    1 1.00
            0.161278             1.000000

   12 0
 s    3 1.00
           18.731137             0.033495
            2.825394             0.234727
            0.640122             0.813757
 s    1 1.00
            0.161278             1.000000

   13 0
 s    3 1.00
           18.731137             0.033495
            2.825394             0.234727
            0.640122             0.813757
 s    1 1.00
            0.161278             1.000000

   14 0
 s    6 1.00
         4173.511000             0.001835
          627.457900             0.013995
          142.902100             0.068587
           40.234330             0.232241
           12.820210             0.469070
            4.390437             0.360455
 s    3 1.00
           11.626358            -0.114961
            2.716280            -0.169118
            0.772218             1.145852
 s    1 1.00
            0.212031             1.000000
 p    3 1.00
           11.626358             0.067580
            2.716280             0.323907
            0.772218             0.740895
 p    1 1.00
            0.212031             1.000000
 d    1 1.00
            0.800000             1.000000

   15 0
 s    3 1.00
           18.731137             0.033495
            2.825394             0.234727
            0.640122             0.813757
 s    1 1.00
            0.161278             1.000000

   16 0
 s    3 1.00
           18.731137             0.033495
            2.825394             0.234727
            0.640122             0.813757
 s    1 1.00
            0.161278             1.000000

   17 0
 s    3 1.00
           18.731137             0.033495
            2.825394             0.234727
            0.640122             0.813757
 s    1 1.00
            0.161278             1.000000

   18 0
 s    6 1.00
         4173.511000             0.001835
          627.457900             0.013995
          142.902100             0.068587
           40.234330             0.232241
           12.820210             0.469070
            4.390437             0.360455
 s    3 1.00
           11.626358            -0.114961
            2.716280            -0.169118
            0.772218             1.145852
 s    1 1.00
            0.212031             1.000000
 p    3 1.00
           11.626358             0.067580
            2.716280             0.323907
            0.772218             0.740895
 p    1 1.00
            0.212031             1.000000
 d    1 1.00
            0.800000             1.000000

   19 0
 s    3 1.00
           18.731137             0.033495
            2.825394             0.234727
            0.640122             0.813757
 s    1 1.00
            0.161278             1.000000

   20 0
 s    3 1.00
           18.731137             0.033495
            2.825394             0.234727
            0.640122             0.813757
 s    1 1.00
            0.161278             1.000000

   21 0
 s    3 1.00
           18.731137             0.033495
            2.825394             0.234727
            0.640122             0.813757
 s    1 1.00
            0.161278             1.000000

   22 0
 s    6 1.00
         4173.511000             0.001835
          627.457900             0.013995
          142.902100             0.068587
           40.234330             0.232241
           12.820210             0.469070
            4.390437             0.360455
 s    3 1.00
           11.626358            -0.114961
            2.716280            -0.169118
            0.772218             1.145852
 s    1 1.00
            0.212031             1.000000
 p    3 1.00
           11.626358             0.067580
            2.716280             0.323907
            0.772218             0.740895
 p    1 1.00
            0.212031             1.000000
 d    1 1.00
            0.800000             1.000000

   23 0
 s    3 1.00
           18.731137             0.033495
            2.825394             0.234727
            0.640122             0.813757
 s    1 1.00
            0.161278             1.000000

   24 0
 s    3 1.00
           18.731137             0.033495
            2.825394             0.234727
            0.640122             0.813757
 s    1 1.00
            0.161278             1.000000

   25 0
 s    3 1.00
           18.731137             0.033495
            2.825394             0.234727
            0.640122             0.813757
 s    1 1.00
            0.161278             1.000000

[MO]
 Ene=   -14.6436
 Spin= Alpha
 Occup= 1.0
    1    0.00028
    2    0.00064
    3    0.00036
    4   -0.00000
    5    0.00005
    6   -0.00000
    7   -0.00003
    8    0.00103
    9    0.00002
   10   -0.00001
   11   -0.00010
   12   -0.00000
   13   -0.00001
   14    0.00008
   15   -0.00001
   16   -0.00000
   17    0.00000
   18    0.00000
   19   -0.00015
   20   -0.00021
   21   -0.00015
   22   -0.00001
   23   -0.00000
   24   -0.00000
   25   -0.99263
   26   -0.03466
   27   -0.00450
   28    0.00002
   29   -0.00096
   30    0.00001
   31   -0.00002
   32    0.00074
   33   -0.00001
   34    0.00839
   35    0.00836
   36    0.00839
   37   -0.00000
   38    0.00000
   39    0.00000
   40   -0.00025
   41    0.00019
   42   -0.00025
   43    0.00018
   44   -0.00025
   45    0.00018
   46    0.00006
   47    0.00002
   48   -0.00004
   49   -0.00000
   50    0.00002
   51    0.00000
   52    0.00005
   53   -0.00013
   54   -0.00000
   55   -0.00000
   56   -0.00000
   57    0.00000
   58    0.00001
   59    0.00000
   60   -0.00000
   61    0.00003
   62   -0.00006
   63   -0.00001
   64   -0.00003
   65   -0.00001
   66   -0.00003
   67    0.00008
   68   -0.00006
   69    0.00040
   70   -0.00000
   71   -0.00003
   72   -0.00000
   73    0.00002
   74    0.00020
   75    0.00000
   76   -0.00005
   77   -0.00004
   78   -0.00006
   79    0.00000
   80    0.00000
   81   -0.00000
   82   -0.00001
   83    0.00004
   84   -0.00001
   85    0.00003
   86   -0.00001
   87    0.00003
   88    0.00006
   89    0.00000
   90    0.00007
   91    0.00000
   92   -0.00000
   93    0.00000
   94   -0.00007
   95   -0.00005
   96   -0.00001
   97   -0.00002
   98   -0.00001
   99   -0.00002
  100   -0.00002
  101   -0.00000
  102    0.00000
  103   -0.00001
  104   -0.00001
  105    0.00001
  106   -0.00011
  107    0.00001
  108   -0.00012
  109    0.00007
  110    0.00000
  111    0.00005
  112    0.00000
  113   -0.00000
  114   -0.00000
  115    0.00000
  116   -0.00005
  117    0.00008
  118   -0.00002
  119   -0.00001
  120   -0.00002
  121   -0.00000
  122   -0.00000
  123    0.00002
  124   -0.00002
  125    0.00000
  126    0.00001
  127   -0.00012
  128    0.00001
  129   -0.00011
  130    0.00006
  131    0.00000
  132    0.00005
  133    0.00000
  134    0.00000
  135    0.00000
  136   -0.00000
  137   -0.00007
  138   -0.00007
  139   -0.00002
  140   -0.00001
  141   -0.00002
  142   -0.00000
  143   -0.00000
  144   -0.00002
  145   -0.00002
  146    0.00000
  147    0.00001
  148   -0.00010
  149    0.00001
  150   -0.00011
 Ene=   -14.6400
 Spin= Alpha
 Occup= 1.0
    1    0.00029
    2    0.00065
    3    0.00033
    4   -0.00001
    5   -0.00004
    6    0.00000
    7    0.00009
    8   -0.00103
    9   -0.00001
   10    0.00001
   11    0.00011
   12   -0.00000
   13   -0.00002
   14    0.00007
   15   -0.00002
   16    0.00000
   17    0.00000
   18    0.00000
   19   -0.00017
   20   -0.00019
   21   -0.00017
   22    0.00001
   23   -0.00000
   24    0.00000
   25   -0.00012
   26   -0.00006
   27    0.00037
   28    0.00000
   29    0.00003
   30   -0.00000
   31   -0.00000
   32   -0.00020
   33    0.00000
   34   -0.00005
   35   -0.00004
   36   -0.00005
   37    0.00000
   38    0.00000
   39   -0.00000
   40   -0.00001
   41    0.00005
   42   -0.00001
   43    0.00004
   44   -0.00001
   45    0.00004
   46    0.00012
   47    0.00001
   48    0.00005
   49   -0.00001
   50    0.00000
   51    0.00000
   52    0.00010
   53    0.00004
   54    0.00000
   55   -0.00002
   56   -0.00001
   57   -0.00002
   58   -0.00002
   59   -0.00000
   60    0.00000
   61   -0.00002
   62   -0.00001
   63    0.00001
   64   -0.00014
   65    0.00001
   66   -0.00014
   67   -0.99263
   68   -0.03466
   69   -0.00449
   70    0.00009
   71    0.00099
   72    0.00000
   73   -0.00007
   74   -0.00075
   75   -0.00000
   76    0.00839
   77    0.00836
   78    0.00839
   79   -0.00000
   80    0.00000
   81    0.00000
   82   -0.00025
   83    0.00021
   84   -0.00025
   85    0.00019
   86   -0.00025
   87    0.00019
   88    0.00010
   89    0.00001
   90    0.00000
   91   -0.00001
   92   -0.00001
   93    0.00000
   94   -0.00001
   95    0.00009
   96   -0.00001
   97   -0.00001
   98   -0.00001
   99   -0.00002
  100    0.00001
  101    0.00000
  102    0.00000
  103    0.00001
  104   -0.00003
  105   -0.00000
  106   -0.00002
  107    0.00000
  108   -0.00004
  109    0.00011
  110    0.00002
  111   -0.00002
  112    0.00000
  113   -0.00001
  114    0.00000
  115   -0.00002
  116    0.00010
  117    0.00005
  118   -0.00001
  119   -0.00001
  120   -0.00001
  121    0.00000
  122    0.00000
  123   -0.00001
  124    0.00001
  125   -0.00004
  126   -0.00000
  127   -0.00004
  128    0.00000
  129   -0.00005
  130    0.00010
  131    0.00001
  132   -0.00002
  133    0.00001
  134   -0.00001
  135   -0.00000
  136   -0.00003
  137    0.00009
  138   -0.00005
  139   -0.00001
  140   -0.00001
  141   -0.00001
  142   -0.00000
  143   -0.00000
  144    0.00001
  145    0.00001
  146   -0.00005
  147    0.00000
  148   -0.00007
  149   -0.00000
  150   -0.00003
 Ene=   -14.6348
 Spin= Alpha
 Occup= 1.0
    1    0.00029
    2    0.00064
    3    0.00040
    4    0.00004
    5   -0.00000
    6   -0.00000
    7    0.00104
    8    0.00003
    9   -0.00001
   10   -0.00010
   11    0.00000
   12   -0.00000
   13    0.00007
   14   -0.00002
   15   -0.00002
   16   -0.00000
   17   -0.00000
   18   -0.00000
   19   -0.00018
   20   -0.00016
   21   -0.00016
   22   -0.00001
   23   -0.00000
   24    0.00000
   25   -0.00006
   26    0.00000
   27    0.00005
   28    0.00001
   29   -0.00001
   30   -0.00000
   31   -0.00009
   32    0.00010
   33    0.00000
   34   -0.00000
   35   -0.00001
   36   -0.00001
   37    0.00002
   38    0.00000
   39   -0.00000
   40   -0.00003
   41   -0.00002
   42    0.00002
   43   -0.00013
   44    0.00002
   45   -0.00013
   46   -0.99263
   47   -0.03464
   48   -0.00447
   49   -0.00101
   50    0.00005
   51    0.00001
   52    0.00078
   53   -0.00004
   54   -0.00000
   55    0.00835
   56    0.00838
   57    0.00838
   58   -0.00000
   59    0.00000
   60   -0.00000
   61   -0.00024
   62    0.00017
   63   -0.00025
   64    0.00017
   65   -0.00025
   66    0.00017
   67   -0.00012
   68    0.00001
   69   -0.00003
   70    0.00001
   71   -0.00000
   72    0.00000
   73   -0.00010
   74   -0.00003
   75   -0.00000
   76   -0.00000
   77   -0.00001
   78   -0.00001
   79   -0.00001
   80   -0.00000
   81    0.00000
   82    0.00002
   83   -0.00005
   84   -0.00000
   85   -0.00003
   86    0.00000
   87   -0.00004
   88    0.00020
   89   -0.00005
   90    0.00038
   91   -0.00003
   92   -0.00000
   93   -0.00000
   94    0.00019
   95    0.00000
   96    0.00000
   97   -0.00004
   98   -0.00005
   99   -0.00005
  100   -0.00000
  101    0.00000
  102    0.00000
  103   -0.00001
  104    0.00003
  105   -0.00001
  106    0.00003
  107   -0.00001
  108    0.00003
  109    0.00161
  110    0.00006
  111    0.00006
  112    0.00000
  113    0.00001
  114    0.00000
  115   -0.00007
  116   -0.00003
  117    0.00007
  118   -0.00002
  119   -0.00003
  120   -0.00003
  121   -0.00000
  122    0.00002
  123    0.00000
  124    0.00001
  125   -0.00012
  126    0.00001
  127   -0.00009
  128   -0.00002
  129   -0.00001
  130    0.00050
  131    0.00002
  132    0.00006
  133    0.00000
  134    0.00001
  135    0.00000
  136   -0.00006
  137   -0.00003
  138   -0.00007
  139   -0.00001
  140   -0.00002
  141   -0.00003
  142   -0.00000
  143   -0.00002
  144   -0.00000
  145    0.00001
  146   -0.00013
  147   -0.00002
  148   -0.00001
  149    0.00001
  150   -0.00010
 Ene=   -14.6344
 Spin= Alpha
 Occup= 1.0
    1    0.00029
    2    0.00064
    3    0.00038
    4    0.00000
    5    0.00000
    6    0.00004
    7   -0.00004
    8   -0.00002
    9    0.00103
   10   -0.00001
   11   -0.00000
   12   -0.00011
   13   -0.00002
   14   -0.00002
   15    0.00006
   16    0.00000
   17    0.00000
   18    0.00000
   19   -0.00017
   20   -0.00016
   21   -0.00016
   22   -0.00000
   23    0.00000
   24   -0.00001
   25   -0.00007
   26    0.00001
   27    0.00001
   28    0.00001
   29    0.00000
   30    0.00001
   31   -0.00002
   32    0.00005
   33   -0.00008
   34   -0.00001
   35   -0.00001
   36   -0.00001
   37   -0.00000
   38   -0.00000
   39    0.00002
   40    0.00001
   41   -0.00010
   42    0.00001
   43   -0.00007
   44   -0.00001
   45   -0.00000
   46   -0.00162
   47   -0.00005
   48    0.00003
   49    0.00000
   50   -0.00001
   51    0.00000
   52    0.00005
   53    0.00002
   54   -0.00008
   55   -0.00000
   56   -0.00001
   57    0.00000
   58   -0.00000
   59    0.00002
   60    0.00000
   61    0.00001
   62   -0.00010
   63    0.00001
   64   -0.00007
   65   -0.00002
   66   -0.00000
   67   -0.00011
   68    0.00000
   69    0.00002
   70   -0.00000
   71    0.00000
   72    0.00000
   73    0.00002
   74   -0.00007
   75   -0.00008
   76   -0.00001
   77   -0.00001
   78   -0.00001
   79    0.00000
   80    0.00000
   81   -0.00002
   82    0.00001
   83   -0.00011
   84    0.00001
   85   -0.00009
   86   -0.00001
   87   -0.00002
   88    0.00045
   89    0.00002
   90    0.00002
   91    0.00000
   92    0.00000
   93    0.00001
   94   -0.00009
   95   -0.00002
   96   -0.00008
   97   -0.00002
   98   -0.00002
   99   -0.00001
  100   -0.00000
  101   -0.00002
  102   -0.00000
  103    0.00001
  104   -0.00011
  105    0.00001
  106   -0.00010
  107   -0.00002
  108   -0.00002
  109   -0.99263
  110   -0.03464
  111   -0.00448
  112   -0.00003
  113    0.00001
  114   -0.00102
  115    0.00003
  116   -0.00000
  117    0.00079
  118    0.00838
  119    0.00838
  120    0.00835
  121    0.00000
  122   -0.00000
  123   -0.00000
  124   -0.00024
  125    0.00018
  126   -0.00025
  127    0.00017
  128   -0.00024
  129    0.00018
  130    0.00040
  131   -0.00005
  132    0.00037
  133   -0.00000
  134   -0.00000
  135   -0.00003
  136    0.00000
  137    0.00001
  138    0.00019
  139   -0.00005
  140   -0.00005
  141   -0.00004
  142    0.00000
  143    0.00000
  144    0.00000
  145   -0.00000
  146    0.00003
  147   -0.00000
  148    0.00003
  149   -0.00001
  150    0.00004
 Ene=   -14.6335
 Spin= Alpha
 Occup= 1.0
    1   -0.00029
    2   -0.00063
    3   -0.00038
    4   -0.00000
    5   -0.00000
    6    0.00004
    7    0.00004
    8    0.00003
    9    0.00103
   10    0.00000
   11   -0.00000
   12   -0.00011
   13    0.00002
   14    0.00002
   15   -0.00006
   16   -0.00000
   17    0.00000
   18   -0.00000
   19    0.00017
   20    0.00017
   21    0.00016
   22    0.00000
   23   -0.00000
   24   -0.00001
   25    0.00006
   26   -0.00000
   27   -0.00004
   28   -0.00000
   29    0.00000
   30    0.00001
   31    0.00002
   32   -0.00006
   33   -0.00008
   34    0.00002
   35    0.00002
   36    0.00001
   37    0.00000
   38   -0.00000
   39    0.00002
   40   -0.00001
   41    0.00011
   42    0.00002
   43    0.00000
   44   -0.00001
   45    0.00009
   46    0.00051
   47    0.00001
   48   -0.00003
   49   -0.00000
   50    0.00001
   51    0.00001
   52   -0.00005
   53   -0.00003
   54   -0.00008
   55    0.00001
   56    0.00001
   57    0.00000
   58    0.00000
   59    0.00002
   60    0.00000
   61   -0.00001
   62    0.00010
   63    0.00001
   64    0.00000
   65   -0.00001
   66    0.00006
   67    0.00011
   68   -0.00000
   69   -0.00001
   70    0.00001
   71    0.00000
   72    0.00000
   73   -0.00003
   74    0.00007
   75   -0.00007
   76    0.00002
   77    0.00001
   78    0.00001
   79   -0.00000
   80   -0.00000
   81   -0.00002
   82   -0.00001
   83    0.00011
   84    0.00001
   85    0.00001
   86   -0.00000
   87    0.00008
   88   -0.00153
   89   -0.00007
   90    0.00000
   91   -0.00000
   92   -0.00000
   93    0.00001
   94    0.00008
   95    0.00002
   96   -0.00009
   97    0.00002
   98    0.00002
   99    0.00002
  100   -0.00000
  101   -0.00002
  102   -0.00000
  103   -0.00001
  104    0.00010
  105    0.00001
  106    0.00002
  107   -0.00002
  108    0.00008
  109    0.00044
  110    0.00007
  111   -0.00036
  112    0.00000
  113    0.00000
  114   -0.00003
  115   -0.00000
  116   -0.00001
  117    0.00018
  118    0.00005
  119    0.00005
  120    0.00004
  121   -0.00000
  122    0.00000
  123    0.00000
  124    0.00001
  125   -0.00003
  126    0.00001
  127   -0.00004
  128    0.00001
  129   -0.00003
  130    0.99263
  131    0.03464
  132    0.00448
  133    0.00003
  134   -0.00001
  135   -0.00102
  136   -0.00003
  137    0.00001
  138    0.00079
  139   -0.00838
  140   -0.00838
  141   -0.00835
  142   -0.00000
  143   -0.00000
  144   -0.00000
  145    0.00025
  146   -0.00018
  147    0.00024
  148   -0.00018
  149    0.00024
  150   -0.00017
 Ene=   -14.6331
 Spin= Alpha
 Occup= 1.0
    1   -0.00030
    2   -0.00064
    3   -0.00038
    4    0.00004
    5   -0.00000
    6    0.00000
    7    0.00103
    8    0.00003
    9    0.00000
   10   -0.00011
   11    0.00003
   12   -0.00000
   13   -0.00006
   14    0.00002
   15    0.00002
   16   -0.00000
   17    0.00000
   18    0.00000
   19    0.00016
   20    0.00018
   21    0.00017
   22   -0.00000
   23   -0.00000
   24   -0.00000
   25    0.00007
   26   -0.00001
   27    0.00002
   28    0.00001
   29   -0.00001
   30    0.00000
   31   -0.00011
   32   -0.00004
   33   -0.00001
   34    0.00001
   35    0.00001
   36    0.00001
   37    0.00001
   38    0.00000
   39   -0.00000
   40   -0.00001
   41    0.00003
   42   -0.00000
   43    0.00005
   44    0.00000
   45    0.00004
   46    0.00025
   47    0.00007
   48   -0.00036
   49   -0.00003
   50    0.00000
   51    0.00000
   52    0.00018
   53   -0.00002
   54   -0.00000
   55    0.00004
   56    0.00004
   57    0.00005
   58    0.00000
   59    0.00000
   60   -0.00000
   61    0.00001
   62   -0.00004
   63    0.00000
   64   -0.00003
   65    0.00000
   66   -0.00003
   67    0.00011
   68    0.00001
   69   -0.00010
   70   -0.00001
   71    0.00000
   72   -0.00000
   73   -0.00002
   74    0.00008
   75    0.00000
   76    0.00002
   77    0.00003
   78    0.00002
   79   -0.00002
   80    0.00000
   81    0.00000
   82    0.00001
   83    0.00001
   84   -0.00000
   85    0.00014
   86   -0.00000
   87    0.00013
   88    0.99263
   89    0.03463
   90    0.00448
   91   -0.00103
   92   -0.00001
   93    0.00001
   94    0.00079
   95    0.00000
   96   -0.00000
   97   -0.00834
   98   -0.00838
   99   -0.00838
  100   -0.00000
  101   -0.00000
  102    0.00000
  103    0.00025
  104   -0.00019
  105    0.00024
  106   -0.00017
  107    0.00025
  108   -0.00018
  109    0.00045
  110    0.00001
  111    0.00001
  112    0.00001
  113   -0.00001
  114    0.00000
  115   -0.00009
  116    0.00002
  117   -0.00006
  118    0.00000
  119    0.00000
  120    0.00001
  121   -0.00000
  122    0.00002
  123    0.00000
  124   -0.00001
  125    0.00009
  126    0.00001
  127    0.00001
  128   -0.00002
  129    0.00007
  130    0.00153
  131    0.00004
  132    0.00003
  133    0.00001
  134   -0.00001
  135   -0.00000
  136   -0.00010
  137    0.00002
  138    0.00006
  139   -0.00001
  140   -0.00001
  141   -0.00001
  142   -0.00000
  143   -0.00002
  144   -0.00000
  145   -0.00000
  146    0.00008
  147   -0.00002
  148    0.00006
  149    0.00001
  150    0.00001
 Ene=    -3.8804
 Spin= Alpha
 Occup= 1.0
    1    0.98874
    2   -0.03903
    3   -0.00327
    4    0.00008
    5    0.00024
    6   -0.00000
    7    0.00034
    8    0.00041
    9    0.00011
   10   -0.00003
   11    0.00003
   12   -0.00001
   13   -0.00981
   14    0.00990
   15   -0.00944
   16   -0.00502
   17    0.00080
   18    0.00592
   19    0.01824
   20    0.01406
   21    0.01817
   22    0.00062
   23   -0.00008
   24   -0.00071
   25   -0.00016
   26   -0.00040
   27    0.00151
   28    0.00003
   29    0.00021
   30   -0.00003
   31   -0.00017
   32   -0.00253
   33    0.00023
   34   -0.00025
   35    0.00016
   36   -0.00027
   37   -0.00000
   38    0.00003
   39   -0.00003
   40   -0.00013
   41    0.00133
   42   -0.00010
   43    0.00139
   44   -0.00002
   45    0.00159
   46   -0.00008
   47    0.00007
   48   -0.00024
   49    0.00029
   50    0.00002
   51   -0.00001
   52   -0.00133
   53   -0.00018
   54    0.00004
   55   -0.00027
   56   -0.00004
   57   -0.00005
   58    0.00005
   59    0.00000
   60    0.00000
   61    0.00002
   62    0.00150
   63   -0.00002
   64    0.00135
   65   -0.00002
   66    0.00142
   67   -0.00017
   68   -0.00046
   69    0.00191
   70   -0.00007
   71   -0.00028
   72    0.00003
   73    0.00044
   74    0.00267
   75   -0.00022
   76   -0.00029
   77    0.00006
   78   -0.00033
   79    0.00003
   80    0.00003
   81   -0.00003
   82   -0.00014
   83    0.00125
   84   -0.00000
   85    0.00160
   86   -0.00010
   87    0.00146
   88   -0.00009
   89    0.00000
   90    0.00030
   91   -0.00029
   92   -0.00000
   93    0.00001
   94    0.00136
   95    0.00002
   96   -0.00010
   97   -0.00035
   98   -0.00006
   99   -0.00009
  100    0.00002
  101   -0.00000
  102    0.00000
  103   -0.00003
  104    0.00135
  105   -0.00001
  106    0.00138
  107   -0.00002
  108    0.00127
  109   -0.00009
  110    0.00003
  111    0.00005
  112    0.00002
  113   -0.00002
  114    0.00028
  115   -0.00009
  116    0.00014
  117   -0.00131
  118   -0.00007
  119   -0.00006
  120   -0.00031
  121   -0.00001
  122   -0.00001
  123   -0.00002
  124    0.00001
  125    0.00143
  126   -0.00001
  127    0.00131
  128   -0.00004
  129    0.00133
  130   -0.00009
  131    0.00000
  132    0.00025
  133    0.00003
  134    0.00004
  135   -0.00029
  136   -0.00016
  137   -0.00032
  138    0.00135
  139   -0.00010
  140   -0.00005
  141   -0.00033
  142   -0.00004
  143    0.00000
  144   -0.00004
  145   -0.00007
  146    0.00119
  147   -0.00004
  148    0.00135
  149    0.00006
  150    0.00145
 Ene=    -2.7049
 Spin= Alpha
 Occup= 1.0
    1   -0.00007
    2    0.00060
    3    0.00064
    4   -0.18588
    5    0.95539
    6    0.22583
    7    0.00176
    8   -0.00860
    9   -0.00177
   10   -0.00005
   11    0.00097
   12    0.00018
   13   -0.00020
   14    0.00026
   15   -0.00012
   16   -0.00007
   17    0.00001
   18   -0.00000
   19    0.00018
   20   -0.00058
   21   -0.00003
   22    0.00038
   23   -0.00003
   24    0.00011
   25   -0.00086
   26   -0.00211
   27    0.00886
   28    0.00014
   29   -0.00094
   30   -0.00014
   31   -0.00047
   32   -0.00630
   33    0.00095
   34   -0.00119
   35    0.00236
   36   -0.00125
   37   -0.00009
   38    0.00008
   39   -0.00008
   40   -0.00043
   41    0.00043
   42   -0.00046
   43    0.00057
   44   -0.00015
   45    0.00120
   46    0.00016
   47    0.00045
   48   -0.00162
   49    0.00013
   50   -0.00052
   51   -0.00012
   52    0.00172
   53    0.00361
   54    0.00083
   55   -0.00055
   56    0.00048
   57   -0.00001
   58   -0.00033
   59   -0.00009
   60   -0.00004
   61   -0.00071
   62   -0.00135
   63    0.00034
   64   -0.00012
   65    0.00061
   66    0.00027
   67    0.00081
   68    0.00211
   69   -0.00851
   70    0.00012
   71   -0.00056
   72   -0.00014
   73   -0.00096
   74   -0.00626
   75    0.00087
   76    0.00126
   77   -0.00194
   78    0.00131
   79   -0.00015
   80   -0.00007
   81    0.00006
   82    0.00038
   83   -0.00057
   84    0.00014
   85   -0.00143
   86    0.00042
   87   -0.00079
   88   -0.00009
   89   -0.00020
   90    0.00051
   91    0.00008
   92   -0.00050
   93   -0.00012
   94    0.00090
   95    0.00360
   96    0.00081
   97    0.00033
   98   -0.00029
   99    0.00008
  100    0.00037
  101    0.00008
  102    0.00014
  103    0.00065
  104    0.00136