[Molden Format]
[Title]
Written by TeraChem
[Atoms] Angs
Fe   1   16      0.00000    0.00000    0.00000
C   2   6      0.00000    0.00000   -2.36200
O   3   8      0.00000    0.00000   -3.48600
C   4   6      2.32200    0.00000    0.00000
O   5   8      3.44700    0.00000    0.00000
C   6   6      0.00000    0.00000    2.36200
O   7   8      0.00000    0.00000    3.48600
C   8   6     -2.32200    0.00000    0.00000
O   9   8     -3.44700    0.00000    0.00000
C   10   6      0.00000    2.32200    0.00000
O   11   8      0.00000    3.44700    0.00000
C   12   6      0.00000   -2.32200    0.00000
O   13   8      0.00000   -3.44700    0.00000
[GTO]
    1 0
 s    3 1.00
            6.422000            -0.392788
            1.826000             0.771264
            0.713500             0.492023
 s    4 1.00
            6.422000             0.178688
            1.826000            -0.419403
            0.713500            -0.456819
            0.102100             1.103505
 s    1 1.00
            0.036300             1.000000
 p    3 1.00
           19.480000            -0.047028
            2.389000             0.624884
            0.779500             0.472254
 p    1 1.00
            0.074000             1.000000
 p    1 1.00
            0.022000             1.000000
 d    4 1.00
           37.080000             0.032900
           10.100000             0.178742
            3.220000             0.448766
            0.962800             0.587636
 d    1 1.00
            0.226200             1.000000

    2 0
 s    6 1.00
         3047.524900             0.001835
          457.369510             0.014037
          103.948690             0.068843
           29.210155             0.232184
            9.286663             0.467941
            3.163927             0.362312
 s    3 1.00
            7.868272            -0.119332
            1.881288            -0.160854
            0.544249             1.143456
 s    1 1.00
            0.168714             1.000000
 p    3 1.00
            7.868272             0.068999
            1.881288             0.316424
            0.544249             0.744308
 p    1 1.00
            0.168714             1.000000
 d    1 1.00
            0.800000             1.000000

    3 0
 s    6 1.00
         5484.671700             0.001831
          825.234950             0.013950
          188.046960             0.068445
           52.964500             0.232714
           16.897570             0.470193
            5.799635             0.358521
 s    3 1.00
           15.539616            -0.110778
            3.599934            -0.148026
            1.013762             1.130767
 s    1 1.00
            0.270006             1.000000
 p    3 1.00
           15.539616             0.070874
            3.599934             0.339753
            1.013762             0.727159
 p    1 1.00
            0.270006             1.000000
 d    1 1.00
            0.800000             1.000000

    4 0
 s    6 1.00
         3047.524900             0.001835
          457.369510             0.014037
          103.948690             0.068843
           29.210155             0.232184
            9.286663             0.467941
            3.163927             0.362312
 s    3 1.00
            7.868272            -0.119332
            1.881288            -0.160854
            0.544249             1.143456
 s    1 1.00
            0.168714             1.000000
 p    3 1.00
            7.868272             0.068999
            1.881288             0.316424
            0.544249             0.744308
 p    1 1.00
            0.168714             1.000000
 d    1 1.00
            0.800000             1.000000

    5 0
 s    6 1.00
         5484.671700             0.001831
          825.234950             0.013950
          188.046960             0.068445
           52.964500             0.232714
           16.897570             0.470193
            5.799635             0.358521
 s    3 1.00
           15.539616            -0.110778
            3.599934            -0.148026
            1.013762             1.130767
 s    1 1.00
            0.270006             1.000000
 p    3 1.00
           15.539616             0.070874
            3.599934             0.339753
            1.013762             0.727159
 p    1 1.00
            0.270006             1.000000
 d    1 1.00
            0.800000             1.000000

    6 0
 s    6 1.00
         3047.524900             0.001835
          457.369510             0.014037
          103.948690             0.068843
           29.210155             0.232184
            9.286663             0.467941
            3.163927             0.362312
 s    3 1.00
            7.868272            -0.119332
            1.881288            -0.160854
            0.544249             1.143456
 s    1 1.00
            0.168714             1.000000
 p    3 1.00
            7.868272             0.068999
            1.881288             0.316424
            0.544249             0.744308
 p    1 1.00
            0.168714             1.000000
 d    1 1.00
            0.800000             1.000000

    7 0
 s    6 1.00
         5484.671700             0.001831
          825.234950             0.013950
          188.046960             0.068445
           52.964500             0.232714
           16.897570             0.470193
            5.799635             0.358521
 s    3 1.00
           15.539616            -0.110778
            3.599934            -0.148026
            1.013762             1.130767
 s    1 1.00
            0.270006             1.000000
 p    3 1.00
           15.539616             0.070874
            3.599934             0.339753
            1.013762             0.727159
 p    1 1.00
            0.270006             1.000000
 d    1 1.00
            0.800000             1.000000

    8 0
 s    6 1.00
         3047.524900             0.001835
          457.369510             0.014037
          103.948690             0.068843
           29.210155             0.232184
            9.286663             0.467941
            3.163927             0.362312
 s    3 1.00
            7.868272            -0.119332
            1.881288            -0.160854
            0.544249             1.143456
 s    1 1.00
            0.168714             1.000000
 p    3 1.00
            7.868272             0.068999
            1.881288             0.316424
            0.544249             0.744308
 p    1 1.00
            0.168714             1.000000
 d    1 1.00
            0.800000             1.000000

    9 0
 s    6 1.00
         5484.671700             0.001831
          825.234950             0.013950
          188.046960             0.068445
           52.964500             0.232714
           16.897570             0.470193
            5.799635             0.358521
 s    3 1.00
           15.539616            -0.110778
            3.599934            -0.148026
            1.013762             1.130767
 s    1 1.00
            0.270006             1.000000
 p    3 1.00
           15.539616             0.070874
            3.599934             0.339753
            1.013762             0.727159
 p    1 1.00
            0.270006             1.000000
 d    1 1.00
            0.800000             1.000000

   10 0
 s    6 1.00
         3047.524900             0.001835
          457.369510             0.014037
          103.948690             0.068843
           29.210155             0.232184
            9.286663             0.467941
            3.163927             0.362312
 s    3 1.00
            7.868272            -0.119332
            1.881288            -0.160854
            0.544249             1.143456
 s    1 1.00
            0.168714             1.000000
 p    3 1.00
            7.868272             0.068999
            1.881288             0.316424
            0.544249             0.744308
 p    1 1.00
            0.168714             1.000000
 d    1 1.00
            0.800000             1.000000

   11 0
 s    6 1.00
         5484.671700             0.001831
          825.234950             0.013950
          188.046960             0.068445
           52.964500             0.232714
           16.897570             0.470193
            5.799635             0.358521
 s    3 1.00
           15.539616            -0.110778
            3.599934            -0.148026
            1.013762             1.130767
 s    1 1.00
            0.270006             1.000000
 p    3 1.00
           15.539616             0.070874
            3.599934             0.339753
            1.013762             0.727159
 p    1 1.00
            0.270006             1.000000
 d    1 1.00
            0.800000             1.000000

   12 0
 s    6 1.00
         3047.524900             0.001835
          457.369510             0.014037
          103.948690             0.068843
           29.210155             0.232184
            9.286663             0.467941
            3.163927             0.362312
 s    3 1.00
            7.868272            -0.119332
            1.881288            -0.160854
            0.544249             1.143456
 s    1 1.00
            0.168714             1.000000
 p    3 1.00
            7.868272             0.068999
            1.881288             0.316424
            0.544249             0.744308
 p    1 1.00
            0.168714             1.000000
 d    1 1.00
            0.800000             1.000000

   13 0
 s    6 1.00
         5484.671700             0.001831
          825.234950             0.013950
          188.046960             0.068445
           52.964500             0.232714
           16.897570             0.470193
            5.799635             0.358521
 s    3 1.00
           15.539616            -0.110778
            3.599934            -0.148026
            1.013762             1.130767
 s    1 1.00
            0.270006             1.000000
 p    3 1.00
           15.539616             0.070874
            3.599934             0.339753
            1.013762             0.727159
 p    1 1.00
            0.270006             1.000000
 d    1 1.00
            0.800000             1.000000

[MO]
 Ene=   -19.6137
 Spin= Alpha
 Occup= 1.0
    1    0.00007
    2    0.00036
    3   -0.00026
    4   -0.00000
    5   -0.00001
    6    0.00000
    7    0.00000
    8   -0.00007
    9   -0.00000
   10   -0.00000
   11   -0.00001
   12    0.00000
   13    0.00019
   14    0.00017
   15    0.00019
   16    0.00000
   17   -0.00000
   18   -0.00000
   19    0.00019
   20    0.00121
   21    0.00019
   22   -0.00000
   23   -0.00000
   24    0.00000
   25   -0.00001
   26   -0.00002
   27    0.00008
   28    0.00000
   29   -0.00000
   30   -0.00001
   31   -0.00000
   32    0.00001
   33    0.00003
   34   -0.00003
   35   -0.00001
   36   -0.00004
   37    0.00000
   38   -0.00000
   39   -0.00000
   40    0.00003
   41   -0.00000
   42    0.00004
   43   -0.00000
   44    0.00000
   45    0.00001
   46    0.00000
   47   -0.00000
   48    0.00001
   49   -0.00001
   50   -0.00001
   51    0.00000
   52    0.00000
   53    0.00000
   54   -0.00000
   55   -0.00001
   56   -0.00002
   57    0.00008
   58    0.00001
   59   -0.00000
   60   -0.00000
   61   -0.00004
   62    0.00001
   63    0.00000
   64   -0.00004
   65   -0.00001
   66   -0.00003
   67    0.00000
   68   -0.00000
   69   -0.00000
   70    0.00004
   71   -0.00001
   72    0.00006
   73   -0.00001
   74    0.00000
   75    0.00000
   76   -0.00001
   77   -0.00000
   78   -0.00000
   79   -0.00000
   80   -0.00001
   81   -0.00001
   82    0.00000
   83    0.00000
   84   -0.00000
   85   -0.00001
   86   -0.00002
   87    0.00008
   88    0.00000
   89   -0.00000
   90    0.00001
   91   -0.00000
   92    0.00001
   93   -0.00003
   94   -0.00003
   95   -0.00001
   96   -0.00004
   97    0.00000
   98    0.00000
   99    0.00000
  100    0.00003
  101   -0.00000
  102    0.00004
  103   -0.00000
  104    0.00000
  105   -0.00001
  106    0.00000
  107   -0.00000
  108   -0.00001
  109   -0.00001
  110   -0.00001
  111    0.00000
  112    0.00000
  113   -0.00000
  114    0.00000
  115   -0.00001
  116   -0.00002
  117    0.00008
  118   -0.00001
  119   -0.00000
  120   -0.00000
  121    0.00004
  122    0.00001
  123    0.00000
  124   -0.00004
  125   -0.00001
  126   -0.00003
  127   -0.00000
  128   -0.00000
  129   -0.00000
  130    0.00004
  131   -0.00001
  132    0.00006
  133    0.00001
  134    0.00000
  135    0.00000
  136    0.00001
  137   -0.00000
  138   -0.00000
  139   -0.00000
  140   -0.00001
  141   -0.00001
  142   -0.00000
  143   -0.00000
  144   -0.00000
  145    0.00004
  146    0.00011
  147    0.00327
  148    0.00000
  149    0.00040
  150   -0.00000
  151    0.00000
  152    0.00352
  153   -0.00000
  154    0.00004
  155    0.00091
  156    0.00004
  157   -0.00000
  158    0.00000
  159    0.00000
  160   -0.64241
  161   -0.01631
  162   -0.01195
  163    0.00000
  164    0.00101
  165   -0.00000
  166   -0.00000
  167    0.00191
  168    0.00000
  169    0.00560
  170    0.00487
  171    0.00560
  172    0.00000
  173   -0.00000
  174   -0.00000
  175    0.00004
  176    0.00010
  177    0.00361
  178   -0.00000
  179   -0.00046
  180    0.00000
  181   -0.00000
  182   -0.00385
  183    0.00000
  184    0.00004
  185    0.00107
  186    0.00004
  187   -0.00000
  188    0.00000
  189    0.00000
  190   -0.75672
  191   -0.01929
  192   -0.01358
  193   -0.00000
  194   -0.00120
  195    0.00000
  196    0.00000
  197   -0.00211
  198   -0.00000
  199    0.00654
  200    0.00570
  201    0.00654
  202    0.00000
  203   -0.00000
  204   -0.00000
 Ene=   -19.6137
 Spin= Alpha
 Occup= 1.0
    1   -0.00001
    2   -0.00003
    3    0.00002
    4   -0.00000
    5   -0.00011
    6    0.00000
    7    0.00000
    8   -0.00083
    9   -0.00000
   10   -0.00000
   11   -0.00007
   12    0.00000
   13   -0.00002
   14   -0.00001
   15   -0.00002
   16   -0.00000
   17    0.00000
   18    0.00000
   19   -0.00002
   20   -0.00010
   21   -0.00002
   22    0.00000
   23    0.00000
   24   -0.00000
   25    0.00000
   26    0.00000
   27   -0.00001
   28    0.00000
   29   -0.00003
   30    0.00000
   31   -0.00000
   32    0.00016
   33   -0.00000
   34    0.00000
   35    0.00000
   36    0.00000
   37   -0.00000
   38   -0.00000
   39   -0.00001
   40   -0.00000
   41    0.00000
   42   -0.00000
   43   -0.00000
   44    0.00000
   45   -0.00000
   46    0.00000
   47   -0.00005
   48   -0.00000
   49    0.00000
   50    0.00000
   51   -0.00000
   52   -0.00000
   53    0.00000
   54   -0.00001
   55    0.00000
   56    0.00000
   57   -0.00001
   58   -0.00000
   59   -0.00003
   60   -0.00000
   61    0.00000
   62    0.00015
   63    0.00000
   64    0.00000
   65    0.00000
   66    0.00000
   67    0.00001
   68   -0.00000
   69    0.00000
   70   -0.00000
   71    0.00000
   72   -0.00000
   73    0.00000
   74    0.00000
   75    0.00000
   76    0.00000
   77   -0.00004
   78   -0.00000
   79    0.00000
   80    0.00000
   81    0.00000
   82    0.00001
   83    0.00000
   84    0.00000
   85    0.00000
   86    0.00000
   87   -0.00001
   88    0.00000
   89   -0.00003
   90   -0.00000
   91   -0.00000
   92    0.00016
   93    0.00000
   94    0.00000
   95    0.00000
   96    0.00000
   97   -0.00000
   98    0.00000
   99    0.00001
  100   -0.00000
  101    0.00000
  102   -0.00000
  103   -0.00000
  104    0.00000
  105    0.00000
  106    0.00000
  107   -0.00005
  108    0.00000
  109    0.00000
  110    0.00000
  111   -0.00000
  112   -0.00000
  113   -0.00000
  114    0.00001
  115    0.00000
  116    0.00000
  117   -0.00001
  118    0.00000
  119   -0.00003
  120   -0.00000
  121   -0.00000
  122    0.00015
  123    0.00000
  124    0.00000
  125    0.00000
  126    0.00000
  127   -0.00001
  128    0.00000
  129   -0.00000
  130   -0.00000
  131    0.00000
  132   -0.00001
  133   -0.00000
  134    0.00000
  135    0.00000
  136   -0.00000
  137   -0.00004
  138   -0.00000
  139    0.00000
  140    0.00000
  141    0.00000
  142   -0.00001
  143   -0.00000
  144    0.00000
  145   -0.00001
  146    0.00005
  147   -0.00237
  148    0.00000
  149   -0.00042
  150   -0.00000
  151   -0.00000
  152   -0.00229
  153    0.00000
  154   -0.00001
  155   -0.00104
  156   -0.00001
  157    0.00000
  158   -0.00000
  159   -0.00000
  160    0.75681
  161    0.01969
  162    0.01101
  163   -0.00000
  164   -0.00123
  165    0.00000
  166    0.00000
  167   -0.00142
  168   -0.00000
  169   -0.00627
  170   -0.00552
  171   -0.00627
  172   -0.00000
  173    0.00000
  174    0.00000
  175    0.00000
  176   -0.00006
  177    0.00181
  178    0.00000
  179   -0.00035
  180   -0.00000
  181   -0.00000
  182   -0.00168
  183    0.00000
  184    0.00000
  185    0.00088
  186    0.00000
  187   -0.00000
  188    0.00000
  189    0.00000
  190   -0.64252
  191   -0.01678
  192   -0.00892
  193   -0.00000
  194   -0.00105
  195    0.00000
  196    0.00000
  197   -0.00109
  198   -0.00000
  199    0.00528
  200    0.00465
  201    0.00528
  202    0.00000
  203   -0.00000
  204   -0.00000
 Ene=   -19.6042
 Spin= Alpha
 Occup= 1.0
    1    0.00007
    2    0.00035
    3   -0.00026
    4   -0.00001
    5   -0.00000
    6   -0.00000
    7   -0.00005
    8    0.00000
    9    0.00000
   10   -0.00000
   11   -0.00000
   12   -0.00000
   13    0.00017
   14    0.00019
   15    0.00019
   16    0.00000
   17    0.00000
   18    0.00000
   19    0.00121
   20    0.00019
   21    0.00019
   22   -0.00000
   23   -0.00000
   24   -0.00000
   25   -0.00001
   26   -0.00002
   27    0.00008
   28   -0.00000
   29    0.00000
   30   -0.00001
   31    0.00001
   32   -0.00000
   33    0.00003
   34   -0.00001
   35   -0.00003
   36   -0.00004
   37    0.00000
   38   -0.00000
   39    0.00000
   40    0.00012
   41    0.00000
   42    0.00004
   43    0.00000
   44   -0.00000
   45    0.00001
   46   -0.00000
   47    0.00000
   48    0.00001
   49   -0.00001
   50   -0.00001
   51   -0.00000
   52    0.00000
   53   -0.00000
   54    0.00000
   55    0.00004
   56    0.00011
   57    0.00331
   58    0.00040
   59    0.00000
   60    0.00000
   61    0.00356
   62    0.00000
   63    0.00000
   64    0.00092
   65    0.00004
   66    0.00004
   67   -0.00000
   68   -0.00000
   69   -0.00000
   70   -0.65514
   71   -0.01664
   72   -0.01213
   73    0.00103
   74    0.00000
   75    0.00000
   76    0.00193
   77   -0.00000
   78   -0.00000
   79    0.00496
   80    0.00571
   81    0.00571
   82    0.00000
   83    0.00000
   84    0.00000
   85   -0.00001
   86   -0.00002
   87    0.00008
   88   -0.00000
   89    0.00000
   90    0.00001
   91    0.00001
   92   -0.00000
   93   -0.00003
   94   -0.00001
   95   -0.00003
   96   -0.00004
   97    0.00000
   98    0.00000
   99    0.00000
  100    0.00012
  101    0.00000
  102    0.00004
  103    0.00000
  104   -0.00000
  105   -0.00001
  106   -0.00000
  107    0.00000
  108   -0.00001
  109   -0.00001
  110   -0.00001
  111   -0.00000
  112    0.00000
  113    0.00000
  114   -0.00000
  115    0.00004
  116    0.00010
  117    0.00358
  118   -0.00045
  119   -0.00000
  120   -0.00000
  121   -0.00382
  122   -0.00000
  123   -0.00000
  124    0.00105
  125    0.00004
  126    0.00004
  127   -0.00000
  128   -0.00000
  129   -0.00000
  130   -0.74573
  131   -0.01900
  132   -0.01343
  133   -0.00117
  134   -0.00000
  135   -0.00000
  136   -0.00210
  137    0.00000
  138    0.00000
  139    0.00562
  140    0.00645
  141    0.00645
  142    0.00000
  143    0.00000
  144    0.00000
  145   -0.00001
  146   -0.00002
  147    0.00008
  148   -0.00000
  149    0.00001
  150    0.00000
  151    0.00001
  152   -0.00004
  153   -0.00000
  154   -0.00001
  155   -0.00004
  156   -0.00003
  157    0.00000
  158   -0.00000
  159    0.00000
  160   -0.00005
  161   -0.00001
  162    0.00006
  163    0.00000
  164   -0.00001
  165   -0.00000
  166   -0.00000
  167   -0.00001
  168   -0.00000
  169   -0.00001
  170   -0.00000
  171   -0.00001
  172    0.00000
  173    0.00000
  174    0.00000
  175   -0.00001
  176   -0.00002
  177    0.00008
  178   -0.00000
  179   -0.00001
  180   -0.00000
  181    0.00001
  182    0.00004
  183   -0.00000
  184   -0.00001
  185   -0.00004
  186   -0.00003
  187   -0.00000
  188    0.00000
  189    0.00000
  190   -0.00005
  191   -0.00001
  192    0.00006
  193    0.00000
  194    0.00001
  195    0.00000
  196   -0.00000
  197    0.00001
  198    0.00000
  199   -0.00001
  200   -0.00000
  201   -0.00001
  202   -0.00000
  203   -0.00000
  204    0.00000
 Ene=   -19.6042
 Spin= Alpha
 Occup= 1.0
    1   -0.00000
    2   -0.00002
    3    0.00002
    4   -0.00011
    5   -0.00000
    6   -0.00000
    7   -0.00083
    8    0.00000
    9    0.00000
   10   -0.00007
   11   -0.00000
   12   -0.00000
   13   -0.00001
   14   -0.00001
   15   -0.00001
   16   -0.00000
   17    0.00000
   18   -0.00000
   19   -0.00008
   20   -0.00001
   21   -0.00001
   22    0.00000
   23    0.00000
   24    0.00000
   25    0.00000
   26    0.00000
   27   -0.00001
   28   -0.00003
   29    0.00000
   30    0.00000
   31    0.00016
   32   -0.00000
   33   -0.00000
   34    0.00000
   35    0.00000
   36    0.00000
   37    0.00000
   38   -0.00001
   39   -0.00000
   40   -0.00001
   41   -0.00000
   42   -0.00000
   43    0.00000
   44   -0.00000
   45   -0.00000
   46   -0.00005
   47    0.00000
   48   -0.00000
   49    0.00000
   50    0.00000
   51    0.00000
   52   -0.00000
   53   -0.00001
   54    0.00000
   55   -0.00001
   56    0.00005
   57   -0.00232
   58   -0.00041
   59    0.00000
   60   -0.00000
   61   -0.00223
   62   -0.00000
   63   -0.00000
   64   -0.00102
   65   -0.00001
   66   -0.00001
   67    0.00000
   68    0.00000
   69    0.00000
   70    0.74582
   71    0.01941
   72    0.01081
   73   -0.00120
   74   -0.00000
   75   -0.00000
   76   -0.00139
   77    0.00000
   78    0.00000
   79   -0.00544
   80   -0.00617
   81   -0.00617
   82   -0.00000
   83   -0.00000
   84   -0.00000
   85    0.00000
   86    0.00000
   87   -0.00001
   88   -0.00003
   89    0.00000
   90   -0.00000
   91    0.00016
   92   -0.00000
   93    0.00000
   94    0.00000
   95    0.00000
   96    0.00000
   97   -0.00000
   98    0.00001
   99    0.00000
  100   -0.00001
  101   -0.00000
  102   -0.00000
  103    0.00000
  104   -0.00000
  105    0.00000
  106   -0.00005
  107    0.00000
  108    0.00000
  109    0.00000
  110    0.00000
  111    0.00000
  112    0.00000
  113    0.00001
  114   -0.00000
  115    0.00000
  116   -0.00006
  117    0.00187
  118   -0.00036
  119    0.00000
  120    0.00000
  121   -0.00175
  122   -0.00000
  123   -0.00000
  124    0.00089
  125    0.00000
  126    0.00000
  127   -0.00000
  128   -0.00000
  129   -0.00000
  130   -0.65524
  131   -0.01711
  132   -0.00915
  133   -0.00106
  134   -0.00000
  135   -0.00000
  136   -0.00113
  137    0.00000
  138    0.00000
  139    0.00475
  140    0.00539
  141    0.00539
  142    0.00000
  143    0.00000
  144    0.00000
  145    0.00000
  146    0.00000
  147   -0.00001
  148   -0.00003
  149   -0.00000
  150    0.00000
  151    0.00015
  152    0.00000
  153   -0.00000
  154    0.00000
  155    0.00000
  156    0.00000
  157    0.00001
  158   -0.00000
  159   -0.00000
  160    0.00000
  161    0.00000
  162   -0.00000
  163    0.00000
  164    0.00000
  165   -0.00000
  166   -0.00004
  167    0.00000
  168    0.00000
  169    0.00000
  170    0.00000
  171    0.00000
  172    0.00001
  173    0.00000
  174   -0.00000
  175    0.00000
  176    0.00000
  177   -0.00001
  178   -0.00003
  179    0.00000
  180    0.00000
  181    0.00015
  182   -0.00000
  183   -0.00000
  184    0.00000
  185    0.00000
  186    0.00000
  187   -0.00001
  188    0.00000
  189   -0.00000
  190    0.00000
  191    0.00000
  192   -0.00000
  193    0.00000
  194   -0.00000
  195   -0.00000
  196   -0.00004
  197   -0.00000
  198    0.00000
  199    0.00000
  200    0.00000
  201    0.00000
  202   -0.00001
  203   -0.00000
  204    0.00000
 Ene=   -19.6012
 Spin= Alpha
 Occup= 1.0
    1   -0.00008
    2   -0.00031
    3    0.00025
    4    0.00000
    5    0.00000
    6   -0.00000
    7   -0.00000
    8   -0.00000
    9   -0.00004
   10    0.00000
   11    0.00000
   12   -0.00000
   13   -0.00016
   14   -0.00016
   15   -0.00013
   16    0.00000
   17    0.00000
   18    0.00000
   19   -0.00015
   20   -0.00015
   21   -0.00119
   22   -0.00000
   23   -0.00000
   24   -0.00000
   25   -0.00004
   26   -0.00010
   27   -0.00340
   28    0.00000
   29   -0.00000
   30    0.00041
   31    0.00000
   32   -0.00000
   33    0.00354
   34   -0.00003
   35   -0.00003
   36   -0.00095
   37   -0.00000
   38   -0.00000
   39   -0.00000
   40    0.67351
   41    0.01713
   42    0.01235
   43   -0.00000
   44   -0.00000
   45    0.00106
   46    0.00000
   47    0.00000
   48    0.00196
   49   -0.00586
   50   -0.00586
   51   -0.00509
   52    0.00000
   53   -0.00000
   54    0.00000
   55    0.00001
   56    0.00002
   57   -0.00009
   58   -0.00001
   59    0.00000
   60   -0.00000
   61    0.00005
   62    0.00000
   63    0.00001
   64    0.00004
   65    0.00003
   66    0.00001
   67    0.00000
   68    0.00000
   69    0.00000
   70    0.00013
   71    0.00001
   72   -0.00006
   73    0.00001
   74   -0.00000
   75    0.00000
   76    0.00001
   77   -0.00000
   78   -0.00000
   79    0.00000
   80    0.00001
   81    0.00001
   82    0.00000
   83    0.00000
   84   -0.00000
   85   -0.00004
   86   -0.00010
   87   -0.00356
   88   -0.00000
   89    0.00000
   90   -0.00044
   91    0.00000
   92    0.00000
   93   -0.00371
   94   -0.00003
   95   -0.00003
   96   -0.00103
   97   -0.00000
   98   -0.00000
   99   -0.00000
  100    0.72917
  101    0.01858
  102    0.01315
  103    0.00000
  104    0.00000
  105   -0.00115
  106   -0.00000
  107   -0.00000
  108   -0.00206
  109   -0.00632
  110   -0.00632
  111   -0.00549
  112    0.00000
  113   -0.00000
  114    0.00000
  115    0.00001
  116    0.00002
  117   -0.00009
  118    0.00001
  119   -0.00000
  120   -0.00000
  121   -0.00005
  122   -0.00000
  123    0.00001
  124    0.00004
  125    0.00003
  126    0.00001
  127    0.00000
  128   -0.00000
  129   -0.00000
  130    0.00013
  131    0.00001
  132   -0.00006
  133   -0.00001
  134    0.00000
  135    0.00000
  136   -0.00001
  137    0.00000
  138   -0.00000
  139    0.00000
  140    0.00001
  141    0.00001
  142    0.00000
  143   -0.00000
  144    0.00000
  145    0.00001
  146    0.00002
  147   -0.00009
  148    0.00000
  149   -0.00001
  150   -0.00000
  151    0.00000
  152    0.00005
  153    0.00001
  154    0.00003
  155    0.00004
  156    0.00001
  157    0.00000
  158    0.00000
  159    0.00000
  160    0.00003
  161    0.00001
  162   -0.00006
  163   -0.00000
  164    0.00001
  165    0.00000
  166   -0.00000
  167    0.00001
  168   -0.00000
  169    0.00001
  170    0.00000
  171    0.00001
  172    0.00000
  173   -0.00000
  174    0.00000
  175    0.00001
  176    0.00002
  177   -0.00009
  178   -0.00000
  179    0.00001
  180   -0.00000
  181   -0.00000
  182   -0.00005
  183    0.00001
  184    0.00003
  185    0.00004
  186    0.00001
  187    0.00000
  188   -0.00000
  189   -0.00000
  190    0.00003
  191    0.00001
  192   -0.00006
  193    0.00000
  194   -0.00001
  195    0.00000
  196    0.00000
  197   -0.00001
  198   -0.00000
  199    0.00001
  200    0.00000
  201    0.00001
  202    0.00000
  203    0.00000
  204   -0.00000
 Ene=   -19.6012
 Spin= Alpha
 Occup= 1.0
    1   -0.00000
    2   -0.00001
    3    0.00001
    4    0.00000
    5   -0.00000
    6    0.00010
    7    0.00000
    8    0.00000
    9    0.00092
   10   -0.00000
   11   -0.00000
   12    0.00005
   13   -0.00001
   14   -0.00001
   15   -0.00001
   16    0.00000
   17    0.00000
   18    0.00000
   19   -0.00001
   20   -0.00001
   21   -0.00005
   22   -0.00000
   23    0.00000
   24   -0.00000
   25   -0.00001
   26    0.00004
   27   -0.00222
   28    0.00000
   29    0.00000
   30    0.00040
   31   -0.00000
   32   -0.00000
   33    0.00218
   34   -0.00001
   35   -0.00001
   36   -0.00101
   37   -0.00000
   38   -0.00000
   39   -0.00000
   40    0.72927
   41    0.01899
   42    0.01055
   43   -0.00000
   44   -0.00000
   45    0.00118
   46    0.00000
   47    0.00000
   48    0.00136
   49   -0.00603
   50   -0.00603
   51   -0.00531
   52    0.00000
   53   -0.00000
   54    0.00000
   55    0.00000
   56    0.00000
   57   -0.00000
   58   -0.00000
   59    0.00000
   60    0.00003
   61    0.00000
   62   -0.00000
   63   -0.00017
   64    0.00000
   65    0.00000
   66    0.00000
   67    0.00000
   68   -0.00001
   69   -0.00000
   70    0.00001
   71    0.00000
   72   -0.00000
   73    0.00000
   74   -0.00000
   75   -0.00000
   76    0.00000
   77    0.00000
   78    0.00005
   79    0.00000
   80    0.00000
   81    0.00000
   82   -0.00000
   83   -0.00001
   84    0.00000
   85    0.00001
   86   -0.00005
   87    0.00195
   88    0.00000
   89    0.00000
   90    0.00037
   91   -0.00000
   92   -0.00000
   93    0.00190
   94    0.00001
   95    0.00001
   96    0.00093
   97    0.00000
   98    0.00000
   99    0.00000
  100   -0.67361
  101   -0.01757
  102   -0.00954
  103   -0.00000
  104   -0.00000
  105    0.00109
  106    0.00000
  107    0.00000
  108    0.00120
  109    0.00555
  110    0.00555
  111    0.00489
  112   -0.00000
  113    0.00000
  114   -0.00000
  115    0.00000
  116    0.00000
  117   -0.00000
  118    0.00000
  119    0.00000
  120    0.00003
  121   -0.00000
  122   -0.00000
  123   -0.00017
  124    0.00000
  125    0.00000
  126    0.00000
  127   -0.00000
  128    0.00001
  129    0.00000
  130    0.00001
  131    0.00000
  132   -0.00000
  133   -0.00000