[Molden Format]
[Title]
Written by TeraChem
[Atoms] Angs
Fe   1   16      0.00000    0.00000    0.00000
C   2   6      1.93700   -0.00000    0.00000
O   3   8      3.06200   -0.00000    0.00000
C   4   6     -0.00000    0.00000    1.93700
O   5   8     -0.00000    0.00000    3.06200
C   6   6     -1.93700    0.00000   -0.00000
O   7   8     -3.06200    0.00000   -0.00000
C   8   6      0.00000   -0.00000   -1.93700
O   9   8      0.00000   -0.00000   -3.06200
C   10   6      0.00000    1.93700   -0.00000
O   11   8      0.00000    3.06200   -0.00000
C   12   6     -0.00000   -1.93700    0.00000
O   13   8     -0.00000   -3.06200    0.00000
[GTO]
    1 0
 s    3 1.00
            6.422000            -0.392788
            1.826000             0.771264
            0.713500             0.492023
 s    4 1.00
            6.422000             0.178688
            1.826000            -0.419403
            0.713500            -0.456819
            0.102100             1.103505
 s    1 1.00
            0.036300             1.000000
 p    3 1.00
           19.480000            -0.047028
            2.389000             0.624884
            0.779500             0.472254
 p    1 1.00
            0.074000             1.000000
 p    1 1.00
            0.022000             1.000000
 d    4 1.00
           37.080000             0.032900
           10.100000             0.178742
            3.220000             0.448766
            0.962800             0.587636
 d    1 1.00
            0.226200             1.000000

    2 0
 s    6 1.00
         3047.524900             0.001835
          457.369510             0.014037
          103.948690             0.068843
           29.210155             0.232184
            9.286663             0.467941
            3.163927             0.362312
 s    3 1.00
            7.868272            -0.119332
            1.881288            -0.160854
            0.544249             1.143456
 s    1 1.00
            0.168714             1.000000
 p    3 1.00
            7.868272             0.068999
            1.881288             0.316424
            0.544249             0.744308
 p    1 1.00
            0.168714             1.000000
 d    1 1.00
            0.800000             1.000000

    3 0
 s    6 1.00
         5484.671700             0.001831
          825.234950             0.013950
          188.046960             0.068445
           52.964500             0.232714
           16.897570             0.470193
            5.799635             0.358521
 s    3 1.00
           15.539616            -0.110778
            3.599934            -0.148026
            1.013762             1.130767
 s    1 1.00
            0.270006             1.000000
 p    3 1.00
           15.539616             0.070874
            3.599934             0.339753
            1.013762             0.727159
 p    1 1.00
            0.270006             1.000000
 d    1 1.00
            0.800000             1.000000

    4 0
 s    6 1.00
         3047.524900             0.001835
          457.369510             0.014037
          103.948690             0.068843
           29.210155             0.232184
            9.286663             0.467941
            3.163927             0.362312
 s    3 1.00
            7.868272            -0.119332
            1.881288            -0.160854
            0.544249             1.143456
 s    1 1.00
            0.168714             1.000000
 p    3 1.00
            7.868272             0.068999
            1.881288             0.316424
            0.544249             0.744308
 p    1 1.00
            0.168714             1.000000
 d    1 1.00
            0.800000             1.000000

    5 0
 s    6 1.00
         5484.671700             0.001831
          825.234950             0.013950
          188.046960             0.068445
           52.964500             0.232714
           16.897570             0.470193
            5.799635             0.358521
 s    3 1.00
           15.539616            -0.110778
            3.599934            -0.148026
            1.013762             1.130767
 s    1 1.00
            0.270006             1.000000
 p    3 1.00
           15.539616             0.070874
            3.599934             0.339753
            1.013762             0.727159
 p    1 1.00
            0.270006             1.000000
 d    1 1.00
            0.800000             1.000000

    6 0
 s    6 1.00
         3047.524900             0.001835
          457.369510             0.014037
          103.948690             0.068843
           29.210155             0.232184
            9.286663             0.467941
            3.163927             0.362312
 s    3 1.00
            7.868272            -0.119332
            1.881288            -0.160854
            0.544249             1.143456
 s    1 1.00
            0.168714             1.000000
 p    3 1.00
            7.868272             0.068999
            1.881288             0.316424
            0.544249             0.744308
 p    1 1.00
            0.168714             1.000000
 d    1 1.00
            0.800000             1.000000

    7 0
 s    6 1.00
         5484.671700             0.001831
          825.234950             0.013950
          188.046960             0.068445
           52.964500             0.232714
           16.897570             0.470193
            5.799635             0.358521
 s    3 1.00
           15.539616            -0.110778
            3.599934            -0.148026
            1.013762             1.130767
 s    1 1.00
            0.270006             1.000000
 p    3 1.00
           15.539616             0.070874
            3.599934             0.339753
            1.013762             0.727159
 p    1 1.00
            0.270006             1.000000
 d    1 1.00
            0.800000             1.000000

    8 0
 s    6 1.00
         3047.524900             0.001835
          457.369510             0.014037
          103.948690             0.068843
           29.210155             0.232184
            9.286663             0.467941
            3.163927             0.362312
 s    3 1.00
            7.868272            -0.119332
            1.881288            -0.160854
            0.544249             1.143456
 s    1 1.00
            0.168714             1.000000
 p    3 1.00
            7.868272             0.068999
            1.881288             0.316424
            0.544249             0.744308
 p    1 1.00
            0.168714             1.000000
 d    1 1.00
            0.800000             1.000000

    9 0
 s    6 1.00
         5484.671700             0.001831
          825.234950             0.013950
          188.046960             0.068445
           52.964500             0.232714
           16.897570             0.470193
            5.799635             0.358521
 s    3 1.00
           15.539616            -0.110778
            3.599934            -0.148026
            1.013762             1.130767
 s    1 1.00
            0.270006             1.000000
 p    3 1.00
           15.539616             0.070874
            3.599934             0.339753
            1.013762             0.727159
 p    1 1.00
            0.270006             1.000000
 d    1 1.00
            0.800000             1.000000

   10 0
 s    6 1.00
         3047.524900             0.001835
          457.369510             0.014037
          103.948690             0.068843
           29.210155             0.232184
            9.286663             0.467941
            3.163927             0.362312
 s    3 1.00
            7.868272            -0.119332
            1.881288            -0.160854
            0.544249             1.143456
 s    1 1.00
            0.168714             1.000000
 p    3 1.00
            7.868272             0.068999
            1.881288             0.316424
            0.544249             0.744308
 p    1 1.00
            0.168714             1.000000
 d    1 1.00
            0.800000             1.000000

   11 0
 s    6 1.00
         5484.671700             0.001831
          825.234950             0.013950
          188.046960             0.068445
           52.964500             0.232714
           16.897570             0.470193
            5.799635             0.358521
 s    3 1.00
           15.539616            -0.110778
            3.599934            -0.148026
            1.013762             1.130767
 s    1 1.00
            0.270006             1.000000
 p    3 1.00
           15.539616             0.070874
            3.599934             0.339753
            1.013762             0.727159
 p    1 1.00
            0.270006             1.000000
 d    1 1.00
            0.800000             1.000000

   12 0
 s    6 1.00
         3047.524900             0.001835
          457.369510             0.014037
          103.948690             0.068843
           29.210155             0.232184
            9.286663             0.467941
            3.163927             0.362312
 s    3 1.00
            7.868272            -0.119332
            1.881288            -0.160854
            0.544249             1.143456
 s    1 1.00
            0.168714             1.000000
 p    3 1.00
            7.868272             0.068999
            1.881288             0.316424
            0.544249             0.744308
 p    1 1.00
            0.168714             1.000000
 d    1 1.00
            0.800000             1.000000

   13 0
 s    6 1.00
         5484.671700             0.001831
          825.234950             0.013950
          188.046960             0.068445
           52.964500             0.232714
           16.897570             0.470193
            5.799635             0.358521
 s    3 1.00
           15.539616            -0.110778
            3.599934            -0.148026
            1.013762             1.130767
 s    1 1.00
            0.270006             1.000000
 p    3 1.00
           15.539616             0.070874
            3.599934             0.339753
            1.013762             0.727159
 p    1 1.00
            0.270006             1.000000
 d    1 1.00
            0.800000             1.000000

[MO]
 Ene=   -19.6365
 Spin= Alpha
 Occup= 2.0
    1   -0.00014
    2    0.00013
    3    0.00000
    4   -0.00000
    5   -0.00000
    6    0.00001
    7    0.00001
    8    0.00000
    9   -0.00008
   10   -0.00000
   11   -0.00000
   12    0.00002
   13    0.00024
   14    0.00024
   15    0.00032
   16    0.00000
   17    0.00000
   18    0.00000
   19    0.00028
   20    0.00029
   21    0.00068
   22   -0.00000
   23   -0.00000
   24   -0.00000
   25   -0.00002
   26   -0.00008
   27   -0.00092
   28   -0.00008
   29   -0.00000
   30    0.00000
   31   -0.00108
   32   -0.00000
   33    0.00001
   34   -0.00026
   35   -0.00005
   36    0.00001
   37    0.00000
   38   -0.00000
   39    0.00000
   40    0.13837
   41    0.00343
   42    0.00315
   43   -0.00023
   44   -0.00000
   45    0.00000
   46   -0.00057
   47    0.00000
   48   -0.00000
   49   -0.00108
   50   -0.00127
   51   -0.00128
   52    0.00000
   53   -0.00000
   54    0.00000
   55    0.00006
   56    0.00013
   57    0.00331
   58   -0.00000
   59   -0.00000
   60    0.00045
   61   -0.00000
   62   -0.00000
   63    0.00409
   64    0.00006
   65    0.00006
   66    0.00115
   67   -0.00000
   68    0.00000
   69    0.00000
   70   -0.72913
   71   -0.01855
   72   -0.01343
   73   -0.00000
   74   -0.00000
   75    0.00123
   76    0.00000
   77    0.00000
   78    0.00209
   79    0.00633
   80    0.00633
   81    0.00549
   82    0.00000
   83    0.00000
   84    0.00000
   85   -0.00002
   86   -0.00009
   87   -0.00083
   88    0.00007
   89   -0.00000
   90    0.00000
   91    0.00102
   92   -0.00000
   93    0.00001
   94   -0.00024
   95   -0.00005
   96    0.00001
   97   -0.00000
   98    0.00000
   99    0.00000
  100    0.12080
  101    0.00297
  102    0.00288
  103    0.00020
  104   -0.00000
  105    0.00000
  106    0.00054
  107    0.00000
  108   -0.00000
  109   -0.00095
  110   -0.00112
  111   -0.00113
  112   -0.00000
  113    0.00000
  114    0.00000
  115    0.00006
  116    0.00015
  117    0.00277
  118   -0.00000
  119   -0.00000
  120   -0.00038
  121   -0.00000
  122   -0.00000
  123   -0.00378
  124    0.00007
  125    0.00007
  126    0.00100
  127   -0.00000
  128   -0.00000
  129   -0.00000
  130   -0.62338
  131   -0.01582
  132   -0.01181
  133   -0.00000
  134   -0.00000
  135   -0.00105
  136    0.00000
  137    0.00000
  138   -0.00187
  139    0.00545
  140    0.00545
  141    0.00471
  142    0.00000
  143   -0.00000
  144   -0.00000
  145   -0.00002
  146   -0.00009
  147   -0.00086
  148   -0.00000
  149   -0.00007
  150    0.00000
  151   -0.00000
  152   -0.00102
  153    0.00001
  154   -0.00005
  155   -0.00024
  156    0.00001
  157    0.00000
  158   -0.00000
  159   -0.00000
  160    0.12604
  161    0.00311
  162    0.00294
  163   -0.00000
  164   -0.00021
  165    0.00000
  166    0.00000
  167   -0.00054
  168   -0.00000
  169   -0.00117
  170   -0.00098
  171   -0.00117
  172    0.00000
  173    0.00000
  174   -0.00000
  175   -0.00002
  176   -0.00009
  177   -0.00085
  178   -0.00000
  179    0.00007
  180    0.00000
  181   -0.00000
  182    0.00102
  183    0.00001
  184   -0.00005
  185   -0.00024
  186    0.00001
  187   -0.00000
  188   -0.00000
  189    0.00000
  190    0.12415
  191    0.00306
  192    0.00291
  193   -0.00000
  194    0.00021
  195    0.00000
  196    0.00000
  197    0.00054
  198   -0.00000
  199   -0.00115
  200   -0.00097
  201   -0.00116
  202   -0.00000
  203    0.00000
  204    0.00000
 Ene=   -19.6365
 Spin= Alpha
 Occup= 2.0
    1   -0.00001
    2    0.00001
    3   -0.00000
    4   -0.00000
    5   -0.00000
    6   -0.00016
    7    0.00000
    8    0.00000
    9    0.00102
   10   -0.00000
   11   -0.00000
   12   -0.00030
   13    0.00001
   14    0.00001
   15    0.00002
   16   -0.00000
   17    0.00000
   18    0.00000
   19    0.00001
   20    0.00001
   21    0.00004
   22    0.00000
   23   -0.00000
   24   -0.00000
   25   -0.00000
   26   -0.00001
   27   -0.00010
   28   -0.00001
   29   -0.00000
   30   -0.00003
   31   -0.00011
   32   -0.00000
   33   -0.00014
   34   -0.00003
   35   -0.00000
   36    0.00000
   37    0.00000
   38    0.00005
   39    0.00000
   40    0.01754
   41    0.00044
   42    0.00036
   43   -0.00003
   44   -0.00000
   45   -0.00001
   46   -0.00006
   47    0.00000
   48    0.00004
   49   -0.00013
   50   -0.00016
   51   -0.00016
   52    0.00000
   53    0.00001
   54    0.00000
   55    0.00003
   56    0.00019
   57   -0.00337
   58   -0.00000
   59   -0.00000
   60   -0.00041
   61   -0.00000
   62   -0.00000
   63   -0.00175
   64    0.00008
   65    0.00008
   66   -0.00089
   67    0.00000
   68    0.00000
   69    0.00000
   70    0.65093
   71    0.01688
   72    0.00984
   73   -0.00000
   74   -0.00000
   75   -0.00109
   76    0.00000
   77    0.00000
   78   -0.00134
   79   -0.00544
   80   -0.00544
   81   -0.00476
   82   -0.00000
   83    0.00000
   84    0.00000
   85   -0.00000
   86   -0.00001
   87   -0.00008
   88    0.00001
   89   -0.00000
   90   -0.00003
   91    0.00010
   92   -0.00000
   93   -0.00014
   94   -0.00003
   95   -0.00000
   96    0.00000
   97   -0.00000
   98   -0.00005
   99    0.00000
  100    0.01425
  101    0.00036
  102    0.00031
  103    0.00002
  104   -0.00000
  105   -0.00001
  106    0.00005
  107    0.00000
  108    0.00004
  109   -0.00011
  110   -0.00013
  111   -0.00013
  112   -0.00000
  113   -0.00001
  114    0.00000
  115   -0.00002
  116   -0.00016
  117    0.00382
  118   -0.00000
  119   -0.00000
  120   -0.00047
  121   -0.00000
  122   -0.00000
  123   -0.00234
  124   -0.00007
  125   -0.00007
  126    0.00105
  127   -0.00000
  128   -0.00000
  129   -0.00000
  130   -0.74892
  131   -0.01936
  132   -0.01170
  133   -0.00000
  134   -0.00000
  135   -0.00126
  136    0.00000
  137    0.00000
  138   -0.00164
  139    0.00629
  140    0.00629
  141    0.00550
  142    0.00000
  143   -0.00000
  144   -0.00000
  145   -0.00000
  146   -0.00001
  147   -0.00008
  148   -0.00000
  149   -0.00001
  150   -0.00003
  151   -0.00000
  152   -0.00010
  153   -0.00014
  154   -0.00000
  155   -0.00003
  156    0.00000
  157    0.00000
  158    0.00000
  159    0.00005
  160    0.01447
  161    0.00036
  162    0.00030
  163   -0.00000
  164   -0.00002
  165   -0.00001
  166    0.00000
  167   -0.00005
  168    0.00004
  169   -0.00013
  170   -0.00011
  171   -0.00013
  172    0.00000
  173    0.00000
  174    0.00001
  175   -0.00000
  176   -0.00001
  177   -0.00008
  178   -0.00000
  179    0.00001
  180   -0.00003
  181   -0.00000
  182    0.00010
  183   -0.00014
  184   -0.00000
  185   -0.00002
  186    0.00000
  187   -0.00000
  188   -0.00000
  189   -0.00005
  190    0.01414
  191    0.00035
  192    0.00030
  193   -0.00000
  194    0.00002
  195   -0.00001
  196    0.00000
  197    0.00005
  198    0.00004
  199   -0.00013
  200   -0.00011
  201   -0.00013
  202   -0.00000
  203    0.00000
  204   -0.00001
 Ene=   -19.6364
 Spin= Alpha
 Occup= 2.0
    1    0.00001
    2   -0.00001
    3   -0.00000
    4   -0.00002
    5    0.00000
    6    0.00000
    7    0.00011
    8   -0.00001
    9   -0.00000
   10   -0.00003
   11    0.00000
   12    0.00000
   13   -0.00007
   14    0.00003
   15   -0.00002
   16    0.00000
   17   -0.00000
   18   -0.00000
   19   -0.00028
   20    0.00021
   21   -0.00004
   22   -0.00000
   23    0.00000
   24   -0.00000
   25   -0.00005
   26   -0.00012
   27   -0.00284
   28   -0.00036
   29    0.00000
   30    0.00000
   31   -0.00334
   32    0.00000
   33    0.00000
   34   -0.00094
   35   -0.00002
   36   -0.00006
   37   -0.00000
   38   -0.00000
   39   -0.00000
   40    0.58387
   41    0.01482
   42    0.01098
   43   -0.00098
   44    0.00000
   45    0.00000
   46   -0.00175
   47   -0.00000
   48   -0.00000
   49   -0.00441
   50   -0.00510
   51   -0.00510
   52   -0.00000
   53   -0.00000
   54    0.00000
   55   -0.00000
   56    0.00000
   57   -0.00002
   58   -0.00000
   59    0.00000
   60   -0.00001
   61   -0.00001
   62    0.00000
   63   -0.00003
   64   -0.00004
   65    0.00004
   66   -0.00001
   67    0.00000
   68    0.00001
   69   -0.00000
   70    0.00831
   71    0.00022
   72    0.00012
   73   -0.00000
   74    0.00000
   75   -0.00001
   76    0.00000
   77   -0.00000
   78   -0.00001
   79   -0.00006
   80   -0.00007
   81   -0.00006
   82   -0.00000
   83    0.00000
   84   -0.00000
   85   -0.00005
   86   -0.00016
   87   -0.00205
   88    0.00026
   89    0.00000
   90    0.00000
   91    0.00289
   92    0.00000
   93    0.00000
   94   -0.00072
   95   -0.00004
   96   -0.00008
   97    0.00000
   98    0.00000
   99   -0.00000
  100    0.42966
  101    0.01083
  102    0.00860
  103    0.00072
  104    0.00000
  105    0.00000
  106    0.00142
  107   -0.00000
  108   -0.00000
  109   -0.00327
  110   -0.00381
  111   -0.00381
  112    0.00000
  113    0.00000
  114    0.00000
  115    0.00000
  116    0.00000
  117   -0.00003
  118   -0.00000
  119    0.00000
  120    0.00001
  121   -0.00001
  122    0.00000
  123    0.00004
  124   -0.00004
  125    0.00004
  126   -0.00001
  127    0.00000
  128   -0.00001
  129    0.00000
  130    0.01076
  131    0.00028
  132    0.00016
  133   -0.00000
  134    0.00000
  135    0.00002
  136    0.00000
  137   -0.00000
  138    0.00002
  139   -0.00009
  140   -0.00009
  141   -0.00008
  142   -0.00000
  143   -0.00000
  144    0.00000
  145    0.00005
  146    0.00014
  147    0.00239
  148   -0.00000
  149    0.00030
  150    0.00000
  151   -0.00001
  152    0.00301
  153    0.00000
  154    0.00003
  155    0.00080
  156    0.00007
  157    0.00001
  158    0.00000
  159   -0.00000
  160   -0.48729
  161   -0.01233
  162   -0.00947
  163   -0.00000
  164    0.00082
  165    0.00000
  166    0.00000
  167    0.00154
  168   -0.00000
  169    0.00429
  170    0.00370
  171    0.00429
  172    0.00000
  173   -0.00000
  174   -0.00000
  175    0.00005
  176    0.00014
  177    0.00231
  178   -0.00000
  179   -0.00029
  180    0.00000
  181   -0.00001
  182   -0.00296
  183    0.00000
  184    0.00003
  185    0.00078
  186    0.00007
  187   -0.00001
  188    0.00000
  189    0.00000
  190   -0.47128
  191   -0.01191
  192   -0.00922
  193   -0.00000
  194   -0.00079
  195    0.00000
  196    0.00000
  197   -0.00151
  198   -0.00000
  199    0.00416
  200    0.00358
  201    0.00415
  202   -0.00000
  203   -0.00000
  204    0.00000
 Ene=   -19.6364
 Spin= Alpha
 Occup= 2.0
    1    0.00031
    2   -0.00029
    3   -0.00000
    4   -0.00008
    5   -0.00001
    6    0.00000
    7    0.00053
    8    0.00006
    9   -0.00001
   10   -0.00016
   11   -0.00002
   12    0.00000
   13   -0.00061
   14   -0.00062
   15   -0.00059
   16   -0.00000
   17   -0.00000
   18   -0.00000
   19   -0.00098
   20   -0.00102
   21   -0.00088
   22   -0.00000
   23    0.00000
   24    0.00000
   25    0.00000
   26    0.00010
   27   -0.00309
   28   -0.00046
   29   -0.00000
   30    0.00000
   31   -0.00275
   32   -0.00001
   33    0.00000
   34   -0.00102
   35    0.00000
   36    0.00003
   37    0.00000
   38   -0.00000
   39   -0.00000
   40    0.73028
   41    0.01887
   42    0.01155
   43   -0.00123
   44   -0.00000
   45    0.00000
   46   -0.00159
   47    0.00000
   48   -0.00000
   49   -0.00538
   50   -0.00613
   51   -0.00613
   52    0.00000
   53   -0.00000
   54    0.00000
   55    0.00001
   56    0.00007
   57   -0.00017
   58   -0.00002
   59   -0.00000
   60   -0.00010
   61   -0.00007
   62   -0.00001
   63   -0.00039
   64    0.00000
   65   -0.00001
   66   -0.00017
   67    0.00000
   68    0.00003
   69    0.00000
   70    0.15062
   71    0.00398
   72    0.00180
   73   -0.00001
   74   -0.00000
   75   -0.00025
   76    0.00002
   77    0.00000
   78   -0.00014
   79   -0.00119
   80   -0.00119
   81   -0.00108
   82   -0.00000
   83    0.00000
   84    0.00000
   85   -0.00002
   86   -0.00008
   87    0.00067
   88   -0.00000
   89   -0.00000
   90    0.00000
   91    0.00062
   92   -0.00001
   93    0.00000
   94   -0.00001
   95   -0.00007
   96   -0.00005
   97   -0.00000
   98    0.00000
   99   -0.00000
  100   -0.00161
  101   -0.00008
  102    0.00029
  103   -0.00000
  104   -0.00000
  105    0.00000
  106    0.00003
  107    0.00000
  108   -0.00000
  109   -0.00001
  110    0.00000
  111   -0.00000
  112   -0.00000
  113    0.00000
  114    0.00000
  115    0.00001
  116    0.00007
  117   -0.00024
  118   -0.00002
  119   -0.00000
  120    0.00011
  121   -0.00007
  122   -0.00001
  123    0.00043
  124    0.00000
  125   -0.00000
  126   -0.00019
  127    0.00000
  128   -0.00003
  129   -0.00000
  130    0.16507
  131    0.00436
  132    0.00202
  133   -0.00001
  134   -0.00000
  135    0.00028
  136    0.00002
  137    0.00000
  138    0.00017
  139   -0.00131
  140   -0.00131
  141   -0.00118
  142   -0.00000
  143   -0.00000
  144   -0.00000
  145   -0.00002
  146    0.00000
  147   -0.00182
  148   -0.00002
  149   -0.00030
  150    0.00000
  151   -0.00007
  152   -0.00232
  153    0.00000
  154   -0.00003
  155   -0.00071
  156   -0.00002
  157    0.00003
  158   -0.00000
  159   -0.00000
  160    0.48810
  161    0.01255
  162    0.00815
  163   -0.00001
  164   -0.00082
  165    0.00000
  166    0.00002
  167   -0.00116
  168   -0.00000
  169   -0.00414
  170   -0.00362
  171   -0.00414
  172    0.00000
  173    0.00000
  174   -0.00000
  175   -0.00002
  176   -0.00002
  177   -0.00139
  178   -0.00002
  179    0.00025
  180    0.00000
  181   -0.00007
  182    0.00207
  183    0.00000
  184   -0.00004
  185   -0.00060
  186   -0.00003
  187   -0.00003
  188   -0.00000
  189    0.00000
  190    0.40497
  191    0.01040
  192    0.00687
  193   -0.00001
  194    0.00068
  195    0.00000
  196    0.00002
  197    0.00098
  198   -0.00000
  199   -0.00344
  200   -0.00301
  201   -0.00344
  202   -0.00000
  203    0.00000
  204    0.00000
 Ene=   -19.6364
 Spin= Alpha
 Occup= 2.0
    1   -0.00001
    2    0.00001
    3    0.00000
    4   -0.00002
    5    0.00016
    6   -0.00000
    7    0.00014
    8   -0.00101
    9    0.00000
   10   -0.00004
   11    0.00030
   12   -0.00000
   13    0.00001
   14    0.00001
   15    0.00001
   16   -0.00000
   17    0.00000
   18   -0.00000
   19    0.00003
   20    0.00002
   21    0.00002
   22    0.00000
   23   -0.00000
   24    0.00000
   25    0.00001
   26    0.00003
   27   -0.00040
   28   -0.00005
   29    0.00003
   30   -0.00000
   31   -0.00016
   32    0.00013
   33   -0.00000
   34   -0.00010
   35    0.00001
   36    0.00001
   37   -0.00005
   38    0.00000
   39   -0.00000
   40    0.07510
   41    0.00195
   42    0.00109
   43   -0.00013
   44    0.00001
   45   -0.00000
   46   -0.00014
   47   -0.00004
   48    0.00000
   49   -0.00055
   50   -0.00062
   51   -0.00062
   52   -0.00001
   53    0.00000
   54    0.00000
   55   -0.00000
   56   -0.00000
   57    0.00000
   58   -0.00000
   59    0.00003
   60    0.00000
   61   -0.00002
   62    0.00013
   63    0.00001
   64    0.00000
   65   -0.00000
   66    0.00000
   67   -0.00000
   68    0.00001
   69   -0.00005
   70   -0.00299
   71   -0.00008
   72   -0.00003
   73   -0.00000
   74    0.00001
   75    0.00001
   76    0.00001
   77   -0.00004
   78    0.00000
   79    0.00002
   80    0.00002
   81    0.00002
   82    0.00000
   83    0.00000
   84   -0.00001
   85   -0.00000
   86   -0.00002
   87    0.00059
   88   -0.00007
   89    0.00003
   90   -0.00000
   91   -0.00040
   92    0.00013
   93   -0.00000
   94    0.00017
   95   -0.00001
   96   -0.00001
   97    0.00005
   98   -0.00000
   99    0.00000
  100   -0.11849
  101   -0.00306
  102   -0.00189
  103   -0.00020
  104    0.00001
  105   -0.00000
  106   -0.00027
  107   -0.00004
  108    0.00000
  109    0.00087
  110    0.00100
  111    0.00100
  112    0.00001
  113   -0.00000
  114   -0.00000
  115   -0.00000
  116   -0.00000
  117    0.00000
  118   -0.00000
  119    0.00003
  120   -0.00000
  121   -0.00002
  122    0.00013
  123   -0.00001
  124    0.00000
  125   -0.00000
  126    0.00000
  127   -0.00000
  128   -0.00001
  129    0.00005
  130   -0.00324
  131   -0.00009
  132   -0.00004
  133   -0.00000
  134    0.00001
  135   -0.00001
  136    0.00001
  137   -0.00004
  138   -0.00000
  139    0.00003
  140    0.00003
  141    0.00002
  142    0.00000
  143   -0.00000
  144    0.00001
  145   -0.00003
  146   -0.00018
  147    0.00354
  148   -0.00000
  149    0.00044
  150   -0.00000
  151   -0.00002
  152    0.00199
  153   -0.00000
  154   -0.00007
  155    0.00095
  156   -0.00007
  157    0.00001
  158    0.00000
  159    0.00000
  160   -0.69073
  161   -0.01789
  162   -0.01059
  163   -0.00000
  164    0.00116
  165   -0.00000
  166    0.00001
  167    0.00146
  168    0.00000
  169    0.00578
  170    0.00506
  171    0.00578
  172    0.00000
  173   -0.00000
  174    0.00000
  175    0.00002
  176    0.00017
  177   -0.00360
  178   -0.00000
  179    0.00044
  180   -0.00000
  181   -0.00002
  182    0.00207
  183   -0.00000
  184    0.00007
  185   -0.00097
  186    0.00007
  187   -0.00001
  188   -0.00000
  189   -0.00000
  190    0.69907
  191    0.01809
  192    0.01080
  193   -0.00000
  194    0.00118
  195   -0.00000
  196    0.00001
  197    0.00150
  198    0.00000
  199   -0.00586
  200   -0.00513
  201   -0.00586
  202   -0.00000
  203    0.00000
  204   -0.00000
 Ene=   -19.6364
 Spin= Alpha
 Occup= 2.0
    1    0.00019
    2   -0.00018
    3   -0.00000
    4    0.00013
    5    0.00002
    6    0.00000
    7   -0.00086
    8   -0.00013
    9   -0.00001
   10    0.00025
   11    0.00004
   12    0.00000
   13   -0.00039
   14   -0.00038
   15   -0.00036
   16    0.00000
   17   -0.00000
   18   -0.00000
   19   -0.00064
   20   -0.00060
   21   -0.00054
   22   -0.00000
   23    0.00000
   24    0.00000
   25   -0.00003
   26   -0.00016
   27    0.00194
   28    0.00019
   29    0.00000
   30    0.00000
   31    0.00025
   32    0.00002
   33    0.00000
   34    0.00038
   35   -0.00008
   36   -0.00007
   37   -0.00001
   38   -0.00000
   39    0.00000
   40   -0.29347
   41   -0.00766
   42   -0.00406
   43    0.00049
   44    0.00000
   45    0.00000
   46    0.00054
   47   -0.00001
   48   -0.00000
   49    0.00212
   50    0.00242
   51    0.00242
   52   -0.00000
   53   -0.00000
   54   -0.00000
   55    0.00001
   56    0.00005
   57   -0.00007
   58    0.00003
   59    0.00000
   60   -0.00006
   61    0.00011
   62    0.00002
   63   -0.00019
   64   -0.00000
   65    0.00000
   66   -0.00009
   67    0.00000
   68   -0.00004
   69   -0.00001
   70    0.08555
   71    0.00227
   72    0.00096
   73    0.00001
   74    0.00000
   75   -0.00014
   76   -0.00003
   77   -0.00001
   78   -0.00006
   79   -0.00067
   80   -0.00067
   81   -0.00061
   82   -0.00000
   83   -0.00001
   84   -0.00000
   85    0.00001
   86    0.00014
   87   -0.00408
   88    0.00055
   89    0.00000
   90    0.00000
   91    0.00317
   92    0.00002
   93    0.00000
   94   -0.00124
   95    0.00003
   96    0.00004
   97    0.00001
   98    0.00000
   99   -0.00000
  100    0.87862
  101    0.02269
  102    0.01398
  103    0.00148
  104    0.00000
  105    0.00000
  106    0.00196
  107   -0.00001
  108   -0.00000
  109   -0.00648
  110   -0.00740
  111   -0.00740
  112    0.00000
  113    0.00000
  114    0.00000
  115    0.00001
  116    0.00005
  117   -0.00010
  118    0.00003
  119    0.00000
  120    0.00006
  121    0.00011
  122    0.00002
  123    0.00021
  124   -0.00000
  125    0.00000
  126   -0.00010
  127    0.00000
  128    0.00004
  129    0.00001
  130    0.09251
  131    0.00245
  132    0.00107
  133    0.00001